4
Lattice="15.620000000000001 0.0 0.0 0.0 15.41 0.0 0.0 0.0 14.38" Properties=species:S:1:pos:R:3:magmoms:R:1:forces:R:3 energy=-19.610831110382918 free_energy=-19.610831110382918 dipole="3.0489845437763585e-15 -0.0006243753493831275 0.3115350286414484" magmom=0.0 pbc="F F F"
N        7.81000000       7.47134412       6.99110962       0.00000000       0.00000000       0.00065131       0.00207452
H        7.81000000       8.41493779       7.38258842       0.00000000       0.00000000      -0.01171763       0.00896991
H        8.62650053       6.99740585       7.38234098       0.00000000       0.00843078       0.01411966      -0.00821388
H        6.99349947       6.99740585       7.38234098       0.00000000      -0.00843078       0.01411966      -0.00821388
