
  ___ ___ ___ _ _ _  
 |   |   |_  | | | | 
 | | | | | . | | | | 
 |__ |  _|___|_____|  25.7.0
 |___|_|             

User:   coder@vm-rockland-6674d4f778-lf4ct
Date:   Mon Mar  2 03:24:02 2026
Arch:   x86_64
Pid:    386734
CWD:    /home/coder/project_dft_tests
Python: 3.12.3
gpaw:   /home/coder/dft_env/lib/python3.12/site-packages/gpaw
_gpaw:  /home/coder/dft_env/lib/python3.12/site-packages/
        _gpaw.cpython-312-x86_64-linux-gnu.so
ase:    /home/coder/dft_env/lib/python3.12/site-packages/ase (version 3.27.0)
numpy:  /home/coder/dft_env/lib/python3.12/site-packages/numpy (version 2.4.2)
scipy:  /home/coder/dft_env/lib/python3.12/site-packages/scipy (version 1.17.1)
libxc:  2.x.y
units:  Angstrom and eV
cores: 1
OpenMP: False
OMP_NUM_THREADS: 1

Input parameters:
  convergence: {energy: 1e-05}
  h: 0.18
  mode: fd
  xc: PBE

System changes: positions, numbers, cell, pbc, initial_charges, initial_magmoms 

Initialize ...

species:
  H:
    name: Hydrogen
    id: d65de229564ff8ea4db303e23b6d1ecf
    Z: 1.0
    valence: 1
    core: 0
    charge: 0.0
    file: /home/coder/dft_env/lib/python3.12/site-packages/gpaw_data/setups/H.PBE.gz
    compensation charges: {type: gauss,
                           rc: 0.15,
                           lmax: 2}
    cutoffs: {filter: 0.85,
              core: 0.53}
    projectors:
      #              energy  rcut
      - 1s(1.00)    -6.494   0.476
      -  s          20.717   0.476
      -  p           0.000   0.476
  
    # Using partial waves for H as LCAO basis

Reference energy: -24.980324  # eV

Spin-paired calculation

Convergence criteria:
 Maximum [total energy] change in last 3 cyles: 1e-05 eV / valence electron
 Maximum integral of absolute [dens]ity change: 0.0001 electrons / valence electron
 Maximum integral of absolute [eigenst]ate change: 4e-08 eV^2 / valence electron
 Maximum number of scf [iter]ations: 333
 (Square brackets indicate name in SCF output, whereas a 'c' in
 the SCF output indicates the quantity has converged.)

Symmetries present (total): 16

  ( 1  0  0)  ( 1  0  0)  ( 1  0  0)  ( 1  0  0)  ( 0  1  0)  ( 0  1  0)
  ( 0  1  0)  ( 0  1  0)  ( 0 -1  0)  ( 0 -1  0)  ( 1  0  0)  ( 1  0  0)
  ( 0  0  1)  ( 0  0 -1)  ( 0  0  1)  ( 0  0 -1)  ( 0  0  1)  ( 0  0 -1)

  ( 0  1  0)  ( 0  1  0)  ( 0 -1  0)  ( 0 -1  0)  ( 0 -1  0)  ( 0 -1  0)
  (-1  0  0)  (-1  0  0)  ( 1  0  0)  ( 1  0  0)  (-1  0  0)  (-1  0  0)
  ( 0  0  1)  ( 0  0 -1)  ( 0  0  1)  ( 0  0 -1)  ( 0  0  1)  ( 0  0 -1)

  (-1  0  0)  (-1  0  0)  (-1  0  0)  (-1  0  0)
  ( 0  1  0)  ( 0  1  0)  ( 0 -1  0)  ( 0 -1  0)
  ( 0  0  1)  ( 0  0 -1)  ( 0  0  1)  ( 0  0 -1)

1 k-point (Gamma)
1 k-point in the irreducible part of the Brillouin zone
       k-points in crystal coordinates                weights
   0:     0.00000000    0.00000000    0.00000000          1/1

Wave functions: Uniform real-space grid
  Kinetic energy operator: 6*3+1=19 point O(h^6) finite-difference Laplacian
  ScaLapack parameters: grid=1x1, blocksize=None
  Wavefunction extrapolation:
    Improved wavefunction reuse through dual PAW basis 

Occupation numbers: # Zero width 

Eigensolver
   Davidson(niter=2) 

Densities:
  Coarse grid: 76*76*80 grid
  Fine grid: 152*152*160 grid
  Total Charge: 0.000000 

Density mixing:
  Method: separate
  Backend: pulay
  Linear mixing parameter: 0.25
  old densities: 3
  Damping of long wavelength oscillations: 1  # (no daming) 

Hamiltonian:
  XC and Coulomb potentials evaluated on a 152*152*160 grid
  Using the PBE Exchange-Correlation functional
  Interpolation: tri-quintic (5. degree polynomial)
  Poisson solver: FastPoissonSolver using
    Stencil: 6*3+1=19 point O(h^6) finite-difference Laplacian
    FFT axes: []
    FST axes: [np.int64(0), np.int64(1), np.int64(2)]
 

XC parameters: PBE with 2 nearest neighbor stencil

Memory estimate:
  Process memory now: 513.63 MiB
  Calculator: 200.04 MiB
    Density: 110.74 MiB
      Arrays: 89.76 MiB
      Localized functions: 0.64 MiB
      Mixer: 20.34 MiB
    Hamiltonian: 58.76 MiB
      Arrays: 58.71 MiB
      XC: 0.00 MiB
      Poisson: 0.00 MiB
      vbar: 0.05 MiB
    Wavefunctions: 30.54 MiB
      Arrays psit_nG: 6.78 MiB
      Eigensolver: 23.73 MiB
      Projections: 0.00 MiB
      Projectors: 0.03 MiB

Total number of cores used: 1

Number of atoms: 2
Number of atomic orbitals: 2
Number of bands in calculation: 2
Number of valence electrons: 2
Bands to converge: occupied

... initialized

Initializing position-dependent things.

Density initialized from atomic densities
Creating initial wave functions:
  2 bands from LCAO basis set

          .---------------------------------.  
         /|                                 |  
        / |                                 |  
       /  |                                 |  
      /   |                                 |  
     /    |                                 |  
    /     |                                 |  
   /      |                                 |  
  /       |                                 |  
 *        |                                 |  
 |        |                                 |  
 |        |                                 |  
 |        |                                 |  
 |        |            H                    |  
 |        |            H                    |  
 |        |                                 |  
 |        |                                 |  
 |        |                                 |  
 |        .---------------------------------.  
 |       /                                 /   
 |      /                                 /    
 |     /                                 /     
 |    /                                 /      
 |   /                                 /       
 |  /                                 /        
 | /                                 /         
 |/                                 /          
 *---------------------------------*           

Atomic positions and initial magnetic moments

Positions:
   0 H      7.000000    7.000000    7.000000    ( 0.0000,  0.0000,  0.0000)
   1 H      7.000000    7.000000    7.740000    ( 0.0000,  0.0000,  0.0000)

Unit cell:
           periodic     x           y           z      points  spacing
  1. axis:    no    14.000000    0.000000    0.000000    76     0.1842
  2. axis:    no     0.000000   14.000000    0.000000    76     0.1842
  3. axis:    no     0.000000    0.000000   14.740000    80     0.1842

  Lengths:  14.000000  14.000000  14.740000
  Angles:   90.000000  90.000000  90.000000

Effective grid spacing dv^(1/3) = 0.1842

     iter     time        total  log10-change:
                         energy   eigst   dens
iter:   1 03:24:08    -7.367327
iter:   2 03:24:10    -7.090458   +0.37  -0.43
iter:   3 03:24:11    -6.799429   +0.69  -0.56
iter:   4 03:24:13    -6.747426   -0.10  -0.99
iter:   5 03:24:15    -6.747992   -0.76  -1.90
iter:   6 03:24:17    -6.748553   -2.80  -2.26
iter:   7 03:24:19    -6.748267   -2.52  -2.01
iter:   8 03:24:21    -6.748176   -2.93  -2.29
iter:   9 03:24:23    -6.748172   -3.86  -3.03
iter:  10 03:24:25    -6.748172c  -4.82  -3.65
iter:  11 03:24:27    -6.748172c  -4.76  -3.63
iter:  12 03:24:29    -6.748172c  -6.37  -3.60
iter:  13 03:24:31    -6.748172c  -6.11  -3.74
iter:  14 03:24:33    -6.748172c  -6.00  -3.95
iter:  15 03:24:35    -6.748172c  -6.32  -4.00c
iter:  16 03:24:37    -6.748172c  -6.78  -4.31c
iter:  17 03:24:39    -6.748172c  -7.96c -4.45c

Converged after 17 iterations.

Dipole moment: (-0.000000, 0.000000, -0.000000) |e|*Ang

Energy contributions relative to reference atoms: (reference = -24.980324)

Kinetic:         +6.859643
Potential:       -8.459710
External:        +0.000000
XC:              -5.127965
Entropy (-ST):   +0.000000
Local:           -0.020140
SIC:             +0.000000
--------------------------
Free energy:     -6.748172
Extrapolated:    -6.748172

 Band  Eigenvalues  Occupancy
    0    -10.38887    2.00000
    1      0.26765    0.00000

Fermi level: -5.06061

Gap: 10.657 eV
Transition (v -> c):
  (s=0, k=0, n=0, [0.00, 0.00, 0.00]) -> (s=0, k=0, n=1, [0.00, 0.00, 0.00])
No difference between direct/indirect transitions

Forces in eV/Ang:
  0 H     0.00000    0.00000   -0.38926
  1 H     0.00000    0.00000    0.38926

System changes: positions 

Initializing position-dependent things.

Density initialized from wave functions
          .---------------------------------.  
         /|                                 |  
        / |                                 |  
       /  |                                 |  
      /   |                                 |  
     /    |                                 |  
    /     |                                 |  
   /      |                                 |  
  /       |                                 |  
 *        |                                 |  
 |        |                                 |  
 |        |                                 |  
 |        |                                 |  
 |        |            H                    |  
 |        |            H                    |  
 |        |                                 |  
 |        |                                 |  
 |        |                                 |  
 |        .---------------------------------.  
 |       /                                 /   
 |      /                                 /    
 |     /                                 /     
 |    /                                 /      
 |   /                                 /       
 |  /                                 /        
 | /                                 /         
 |/                                 /          
 *---------------------------------*           

Atomic positions and initial magnetic moments

Positions:
   0 H      7.000000    7.000000    6.994439    ( 0.0000,  0.0000,  0.0000)
   1 H      7.000000    7.000000    7.745561    ( 0.0000,  0.0000,  0.0000)

Unit cell:
           periodic     x           y           z      points  spacing
  1. axis:    no    14.000000    0.000000    0.000000    76     0.1842
  2. axis:    no     0.000000   14.000000    0.000000    76     0.1842
  3. axis:    no     0.000000    0.000000   14.740000    80     0.1842

  Lengths:  14.000000  14.000000  14.740000
  Angles:   90.000000  90.000000  90.000000

Effective grid spacing dv^(1/3) = 0.1842

     iter     time        total  log10-change:
                         energy   eigst   dens
iter:   1 03:24:41    -6.750288   -1.59
iter:   2 03:24:43    -6.750289   -2.74  -2.45
iter:   3 03:24:44    -6.750296c  -2.54  -2.51
iter:   4 03:24:47    -6.750268   -3.80  -2.58
iter:   5 03:24:49    -6.750270   -5.76  -3.12
iter:   6 03:24:51    -6.750266c  -4.53  -2.93
iter:   7 03:24:53    -6.750266c  -5.32  -3.59
iter:   8 03:24:55    -6.750266c  -5.48  -4.19c
iter:   9 03:24:57    -6.750266c  -6.87  -4.54c
iter:  10 03:24:59    -6.750266c  -7.18  -4.54c
iter:  11 03:25:01    -6.750266c  -7.72c -5.05c

Converged after 11 iterations.

Dipole moment: (0.000000, 0.000000, 0.000000) |e|*Ang

Energy contributions relative to reference atoms: (reference = -24.980324)

Kinetic:         +6.569019
Potential:       -8.267353
External:        +0.000000
XC:              -5.032152
Entropy (-ST):   +0.000000
Local:           -0.019780
SIC:             +0.000000
--------------------------
Free energy:     -6.750266
Extrapolated:    -6.750266

 Band  Eigenvalues  Occupancy
    0    -10.33528    2.00000
    1      0.22724    0.00000

Fermi level: -5.05402

Gap: 10.563 eV
Transition (v -> c):
  (s=0, k=0, n=0, [0.00, 0.00, 0.00]) -> (s=0, k=0, n=1, [0.00, 0.00, 0.00])
No difference between direct/indirect transitions

Forces in eV/Ang:
  0 H     0.00000    0.00000    0.00727
  1 H     0.00000    0.00000   -0.00727

Writing to runs/H2/final_with_dos.gpw (mode='')

Timing:                                      incl.     excl.
-------------------------------------------------------------------
Density initialized from wave functions:     0.111     0.031   0.1% |
 Symmetrize density:                         0.080     0.080   0.1% |
Forces:                                      0.077     0.077   0.1% |
Hamiltonian:                                 2.404     0.000   0.0% |
 Atomic:                                     0.036     0.001   0.0% |
  XC Correction:                             0.035     0.035   0.1% |
 Calculate atomic Hamiltonians:              0.001     0.001   0.0% |
 Communicate:                                0.000     0.000   0.0% |
 Hartree integrate/restrict:                 0.184     0.184   0.3% |
 Initialize Hamiltonian:                     0.000     0.000   0.0% |
 Poisson:                                    0.659     0.049   0.1% |
  Communicate from 1D:                       0.083     0.083   0.1% |
  Communicate from 2D:                       0.059     0.059   0.1% |
  Communicate to 1D:                         0.125     0.125   0.2% |
  Communicate to 2D:                         0.082     0.082   0.1% |
  FFT 1D:                                    0.063     0.063   0.1% |
  FFT 2D:                                    0.197     0.197   0.3% |
 XC 3D grid:                                 1.485     1.485   2.5% ||
 vbar:                                       0.039     0.039   0.1% |
LCAO initialization:                         0.008     0.002   0.0% |
 LCAO eigensolver:                           0.002     0.000   0.0% |
  Calculate projections:                     0.000     0.000   0.0% |
  DenseAtomicCorrection:                     0.000     0.000   0.0% |
  Distribute overlap matrix:                 0.000     0.000   0.0% |
  Orbital Layouts:                           0.000     0.000   0.0% |
  Potential matrix:                          0.001     0.001   0.0% |
 LCAO to grid:                               0.001     0.001   0.0% |
 Set positions (LCAO WFS):                   0.003     0.000   0.0% |
  Basic WFS set positions:                   0.001     0.001   0.0% |
  Basis functions set positions:             0.000     0.000   0.0% |
  P tci:                                     0.001     0.001   0.0% |
  ST tci:                                    0.000     0.000   0.0% |
  mktci:                                     0.001     0.001   0.0% |
Redistribute:                                0.000     0.000   0.0% |
SCF-cycle:                                  52.404     0.015   0.0% |
 Davidson:                                  11.726     7.725  12.9% |----|
  Apply hamiltonian:                         0.306     0.306   0.5% |
  Subspace diag:                             1.441     0.002   0.0% |
   calc_h_matrix:                            1.203     0.050   0.1% |
    Apply hamiltonian:                       1.153     1.153   1.9% ||
   diagonalize:                              0.004     0.004   0.0% |
   rotate_psi:                               0.231     0.231   0.4% |
  calc. matrices:                            1.933     0.292   0.5% |
   Apply hamiltonian:                        1.640     1.640   2.7% ||
  diagonalize:                               0.007     0.007   0.0% |
  rotate_psi:                                0.316     0.316   0.5% |
 Density:                                   10.047     0.000   0.0% |
  Atomic density matrices:                   0.010     0.010   0.0% |
  Mix:                                       7.604     7.604  12.7% |----|
  Multipole moments:                         0.002     0.002   0.0% |
  Pseudo density:                            2.431     0.029   0.0% |
   Symmetrize density:                       2.402     2.402   4.0% |-|
 Hamiltonian:                               30.603     0.002   0.0% |
  Atomic:                                    0.880     0.080   0.1% |
   XC Correction:                            0.800     0.800   1.3% ||
  Calculate atomic Hamiltonians:             0.013     0.013   0.0% |
  Communicate:                               0.000     0.000   0.0% |
  Hartree integrate/restrict:                1.118     1.118   1.9% ||
  Poisson:                                   8.581     0.484   0.8% |
   Communicate from 1D:                      1.099     1.099   1.8% ||
   Communicate from 2D:                      0.811     0.811   1.4% ||
   Communicate to 1D:                        1.657     1.657   2.8% ||
   Communicate to 2D:                        1.085     1.085   1.8% ||
   FFT 1D:                                   0.836     0.836   1.4% ||
   FFT 2D:                                   2.609     2.609   4.4% |-|
  XC 3D grid:                               19.331    19.331  32.3% |------------|
  vbar:                                      0.679     0.679   1.1% |
 Orthonormalize:                             0.014     0.000   0.0% |
  calc_s_matrix:                             0.002     0.002   0.0% |
  inverse-cholesky:                          0.000     0.000   0.0% |
  projections:                               0.000     0.000   0.0% |
  rotate_psi_s:                              0.011     0.011   0.0% |
Set symmetry:                                0.002     0.002   0.0% |
Other:                                       4.879     4.879   8.1% |--|
-------------------------------------------------------------------
Total:                                                59.884 100.0%

Memory usage: 623.23 MiB
Date: Mon Mar  2 03:25:02 2026
