2
Lattice="14.0 0.0 0.0 0.0 14.0 0.0 0.0 0.0 14.74" Properties=species:S:1:pos:R:3:magmoms:R:1:forces:R:3 energy=-6.7502661523755885 free_energy=-6.7502661523755885 dipole="1.1596607051488899e-15 7.178587645565341e-16 4.705047993272755e-18" magmom=0.0 pbc="F F F"
H        7.00000000       7.00000000       6.99443907       0.00000000       0.00000000       0.00000000       0.00727038
H        7.00000000       7.00000000       7.74556093       0.00000000       0.00000000       0.00000000      -0.00727038
