2
Lattice="14.74 0.0 0.0 0.0 14.0 0.0 0.0 0.0 14.0" Properties=species:S:1:pos:R:3:magmoms:R:1:forces:R:3 energy=-6.750259098116985 free_energy=-6.750259098116991 dipole="1.4033211304320844e-10 3.367463984018924e-10 3.367494910154814e-10" magmom=0.0 pbc="T T T"
H        6.99443938       7.00000000       7.00000000       0.00000000       0.00743664       0.00000000       0.00000000
H        7.74556062       7.00000000       7.00000000       0.00000000      -0.00743664       0.00000000       0.00000000
