
  ___ ___ ___ _ _ _  
 |   |   |_  | | | | 
 | | | | | . | | | | 
 |__ |  _|___|_____|  25.7.0
 |___|_|             

User:   coder@vm-rockland-6674d4f778-lf4ct
Date:   Mon Mar  2 06:17:35 2026
Arch:   x86_64
Pid:    654907
CWD:    /home/coder/project_dft_tests
Python: 3.12.3
gpaw:   /home/coder/dft_env/lib/python3.12/site-packages/gpaw
_gpaw:  /home/coder/dft_env/lib/python3.12/site-packages/
        _gpaw.cpython-312-x86_64-linux-gnu.so
ase:    /home/coder/dft_env/lib/python3.12/site-packages/ase (version 3.27.0)
numpy:  /home/coder/dft_env/lib/python3.12/site-packages/numpy (version 2.4.2)
scipy:  /home/coder/dft_env/lib/python3.12/site-packages/scipy (version 1.17.1)
libxc:  2.x.y
units:  Angstrom and eV
cores: 1
OpenMP: False
OMP_NUM_THREADS: 1

Input parameters:
  convergence: {energy: 1e-05}
  h: 0.18
  mode: fd
  xc: PBE

System changes: positions, numbers, cell, pbc, initial_charges, initial_magmoms 

Initialize ...

species:
  H:
    name: Hydrogen
    id: d65de229564ff8ea4db303e23b6d1ecf
    Z: 1.0
    valence: 1
    core: 0
    charge: 0.0
    file: /home/coder/dft_env/lib/python3.12/site-packages/gpaw_data/setups/H.PBE.gz
    compensation charges: {type: gauss,
                           rc: 0.15,
                           lmax: 2}
    cutoffs: {filter: 0.85,
              core: 0.53}
    projectors:
      #              energy  rcut
      - 1s(1.00)    -6.494   0.476
      -  s          20.717   0.476
      -  p           0.000   0.476
  
    # Using partial waves for H as LCAO basis

Reference energy: -12.490162  # eV

Spin-paired calculation

Convergence criteria:
 Maximum [total energy] change in last 3 cyles: 1e-05 eV / valence electron
 Maximum integral of absolute [dens]ity change: 0.0001 electrons / valence electron
 Maximum integral of absolute [eigenst]ate change: 4e-08 eV^2 / valence electron
 Maximum number of scf [iter]ations: 333
 (Square brackets indicate name in SCF output, whereas a 'c' in
 the SCF output indicates the quantity has converged.)

Symmetries present (total): 48

  ( 1  0  0)  ( 1  0  0)  ( 1  0  0)  ( 1  0  0)  ( 1  0  0)  ( 1  0  0)
  ( 0  1  0)  ( 0  1  0)  ( 0  0  1)  ( 0  0  1)  ( 0  0 -1)  ( 0  0 -1)
  ( 0  0  1)  ( 0  0 -1)  ( 0  1  0)  ( 0 -1  0)  ( 0  1  0)  ( 0 -1  0)

  ( 1  0  0)  ( 1  0  0)  ( 0  1  0)  ( 0  1  0)  ( 0  1  0)  ( 0  1  0)
  ( 0 -1  0)  ( 0 -1  0)  ( 1  0  0)  ( 1  0  0)  ( 0  0  1)  ( 0  0  1)
  ( 0  0  1)  ( 0  0 -1)  ( 0  0  1)  ( 0  0 -1)  ( 1  0  0)  (-1  0  0)

  ( 0  1  0)  ( 0  1  0)  ( 0  1  0)  ( 0  1  0)  ( 0  0  1)  ( 0  0  1)
  ( 0  0 -1)  ( 0  0 -1)  (-1  0  0)  (-1  0  0)  ( 1  0  0)  ( 1  0  0)
  ( 1  0  0)  (-1  0  0)  ( 0  0  1)  ( 0  0 -1)  ( 0  1  0)  ( 0 -1  0)

  ( 0  0  1)  ( 0  0  1)  ( 0  0  1)  ( 0  0  1)  ( 0  0  1)  ( 0  0  1)
  ( 0  1  0)  ( 0  1  0)  ( 0 -1  0)  ( 0 -1  0)  (-1  0  0)  (-1  0  0)
  ( 1  0  0)  (-1  0  0)  ( 1  0  0)  (-1  0  0)  ( 0  1  0)  ( 0 -1  0)

  ( 0  0 -1)  ( 0  0 -1)  ( 0  0 -1)  ( 0  0 -1)  ( 0  0 -1)  ( 0  0 -1)
  ( 1  0  0)  ( 1  0  0)  ( 0  1  0)  ( 0  1  0)  ( 0 -1  0)  ( 0 -1  0)
  ( 0  1  0)  ( 0 -1  0)  ( 1  0  0)  (-1  0  0)  ( 1  0  0)  (-1  0  0)

  ( 0  0 -1)  ( 0  0 -1)  ( 0 -1  0)  ( 0 -1  0)  ( 0 -1  0)  ( 0 -1  0)
  (-1  0  0)  (-1  0  0)  ( 1  0  0)  ( 1  0  0)  ( 0  0  1)  ( 0  0  1)
  ( 0  1  0)  ( 0 -1  0)  ( 0  0  1)  ( 0  0 -1)  ( 1  0  0)  (-1  0  0)

  ( 0 -1  0)  ( 0 -1  0)  ( 0 -1  0)  ( 0 -1  0)  (-1  0  0)  (-1  0  0)
  ( 0  0 -1)  ( 0  0 -1)  (-1  0  0)  (-1  0  0)  ( 0  1  0)  ( 0  1  0)
  ( 1  0  0)  (-1  0  0)  ( 0  0  1)  ( 0  0 -1)  ( 0  0  1)  ( 0  0 -1)

  (-1  0  0)  (-1  0  0)  (-1  0  0)  (-1  0  0)  (-1  0  0)  (-1  0  0)
  ( 0  0  1)  ( 0  0  1)  ( 0  0 -1)  ( 0  0 -1)  ( 0 -1  0)  ( 0 -1  0)
  ( 0  1  0)  ( 0 -1  0)  ( 0  1  0)  ( 0 -1  0)  ( 0  0  1)  ( 0  0 -1)

1 k-point (Gamma)
1 k-point in the irreducible part of the Brillouin zone
       k-points in crystal coordinates                weights
   0:     0.00000000    0.00000000    0.00000000          1/1

Wave functions: Uniform real-space grid
  Kinetic energy operator: 6*3+1=19 point O(h^6) finite-difference Laplacian
  ScaLapack parameters: grid=1x1, blocksize=None
  Wavefunction extrapolation:
    Improved wavefunction reuse through dual PAW basis 

Occupation numbers: # Zero width 

Eigensolver
   Davidson(niter=2) 

Densities:
  Coarse grid: 76*76*76 grid
  Fine grid: 152*152*152 grid
  Total Charge: 0.000000 

Density mixing:
  Method: separate
  Backend: pulay
  Linear mixing parameter: 0.25
  old densities: 3
  Damping of long wavelength oscillations: 1  # (no daming) 

Hamiltonian:
  XC and Coulomb potentials evaluated on a 152*152*152 grid
  Using the PBE Exchange-Correlation functional
  Interpolation: tri-quintic (5. degree polynomial)
  Poisson solver: FastPoissonSolver using
    Stencil: 6*3+1=19 point O(h^6) finite-difference Laplacian
    FFT axes: []
    FST axes: [np.int64(0), np.int64(1), np.int64(2)]
 

XC parameters: PBE with 2 nearest neighbor stencil

Memory estimate:
  Process memory now: 493.39 MiB
  Calculator: 183.20 MiB
    Density: 104.87 MiB
      Arrays: 85.24 MiB
      Localized functions: 0.32 MiB
      Mixer: 19.31 MiB
    Hamiltonian: 55.78 MiB
      Arrays: 55.75 MiB
      XC: 0.00 MiB
      Poisson: 0.00 MiB
      vbar: 0.02 MiB
    Wavefunctions: 22.55 MiB
      Arrays psit_nG: 3.22 MiB
      Eigensolver: 19.31 MiB
      Projections: 0.00 MiB
      Projectors: 0.02 MiB

Total number of cores used: 1

Number of atoms: 1
Number of atomic orbitals: 1
Number of bands in calculation: 1
Number of valence electrons: 1
Bands to converge: occupied

... initialized

Initializing position-dependent things.

Density initialized from atomic densities
Creating initial wave functions:
  1 band from LCAO basis set

          .---------------------------------.  
         /|                                 |  
        / |                                 |  
       /  |                                 |  
      /   |                                 |  
     /    |                                 |  
    /     |                                 |  
   /      |                                 |  
  /       |                                 |  
 *        |                                 |  
 |        |                                 |  
 |        |                                 |  
 |        |                                 |  
 |        |            H                    |  
 |        |                                 |  
 |        |                                 |  
 |        |                                 |  
 |        .---------------------------------.  
 |       /                                 /   
 |      /                                 /    
 |     /                                 /     
 |    /                                 /      
 |   /                                 /       
 |  /                                 /        
 | /                                 /         
 |/                                 /          
 *---------------------------------*           

Atomic positions and initial magnetic moments

Positions:
   0 H      7.000000    7.000000    7.000000    ( 0.0000,  0.0000,  0.0000)

Unit cell:
           periodic     x           y           z      points  spacing
  1. axis:    no    14.000000    0.000000    0.000000    76     0.1842
  2. axis:    no     0.000000   14.000000    0.000000    76     0.1842
  3. axis:    no     0.000000    0.000000   14.000000    76     0.1842

  Lengths:  14.000000  14.000000  14.000000
  Angles:   90.000000  90.000000  90.000000

Effective grid spacing dv^(1/3) = 0.1842

     iter     time        total  log10-change:
                         energy   eigst   dens
iter:   1 06:17:41     0.011467
iter:   2 06:17:43     0.010683   -0.91  -2.33
iter:   3 06:17:44     0.010399   -1.40  -2.28
iter:   4 06:17:45     0.010309   -1.85  -2.44
iter:   5 06:17:47     0.010289   -2.35  -2.89
iter:   6 06:17:49     0.010283   -2.87  -3.13
iter:   7 06:17:50     0.010282c  -3.31  -3.31
iter:   8 06:17:52     0.010281c  -3.79  -3.52
iter:   9 06:17:53     0.010281c  -4.33  -3.49
iter:  10 06:17:55     0.010281c  -4.81  -4.45c
iter:  11 06:17:56     0.010281c  -5.23  -4.33c
iter:  12 06:17:57     0.010281c  -5.64  -4.62c
iter:  13 06:17:59     0.010281c  -6.15  -4.64c
iter:  14 06:18:00     0.010281c  -6.65  -4.88c
iter:  15 06:18:02     0.010281c  -7.12  -5.37c
iter:  16 06:18:03     0.010281c  -7.64c -5.31c

Converged after 16 iterations.

Dipole moment: (-0.000000, -0.000000, -0.000000) |e|*Ang

Energy contributions relative to reference atoms: (reference = -12.490162)

Kinetic:         +0.043884
Potential:       -0.024988
External:        +0.000000
XC:              -0.001849
Entropy (-ST):   +0.000000
Local:           -0.006766
SIC:             +0.000000
--------------------------
Free energy:     +0.010281
Extrapolated:    +0.010281

 Band  Eigenvalues  Occupancy
    0     -6.49372    1.00000

Fermi level: -6.49372

Could not find a gap
Timing:                              incl.     excl.
-----------------------------------------------------------
Hamiltonian:                         1.118     0.000   0.0% |
 Atomic:                             0.009     0.000   0.0% |
  XC Correction:                     0.009     0.009   0.0% |
 Calculate atomic Hamiltonians:      0.000     0.000   0.0% |
 Communicate:                        0.000     0.000   0.0% |
 Hartree integrate/restrict:         0.150     0.150   0.5% |
 Initialize Hamiltonian:             0.000     0.000   0.0% |
 Poisson:                            0.386     0.028   0.1% |
  Communicate from 1D:               0.052     0.052   0.2% |
  Communicate from 2D:               0.036     0.036   0.1% |
  Communicate to 1D:                 0.070     0.070   0.2% |
  Communicate to 2D:                 0.052     0.052   0.2% |
  FFT 1D:                            0.052     0.052   0.2% |
  FFT 2D:                            0.096     0.096   0.3% |
 XC 3D grid:                         0.555     0.555   1.7% ||
 vbar:                               0.017     0.017   0.1% |
LCAO initialization:                 0.007     0.002   0.0% |
 LCAO eigensolver:                   0.001     0.000   0.0% |
  Calculate projections:             0.000     0.000   0.0% |
  DenseAtomicCorrection:             0.000     0.000   0.0% |
  Distribute overlap matrix:         0.000     0.000   0.0% |
  Orbital Layouts:                   0.000     0.000   0.0% |
  Potential matrix:                  0.000     0.000   0.0% |
 LCAO to grid:                       0.001     0.001   0.0% |
 Set positions (LCAO WFS):           0.003     0.000   0.0% |
  Basic WFS set positions:           0.001     0.001   0.0% |
  Basis functions set positions:     0.000     0.000   0.0% |
  P tci:                             0.001     0.001   0.0% |
  ST tci:                            0.000     0.000   0.0% |
  mktci:                             0.001     0.001   0.0% |
SCF-cycle:                          22.591     0.010   0.0% |
 Davidson:                           2.897     0.965   3.0% ||
  Apply hamiltonian:                 0.170     0.170   0.5% |
  Subspace diag:                     0.541     0.001   0.0% |
   calc_h_matrix:                    0.399     0.136   0.4% |
    Apply hamiltonian:               0.263     0.263   0.8% |
   diagonalize:                      0.002     0.002   0.0% |
   rotate_psi:                       0.138     0.138   0.4% |
  calc. matrices:                    0.908     0.455   1.4% ||
   Apply hamiltonian:                0.453     0.453   1.4% ||
  diagonalize:                       0.003     0.003   0.0% |
  rotate_psi:                        0.310     0.310   1.0% |
 Density:                            5.128     0.000   0.0% |
  Atomic density matrices:           0.006     0.006   0.0% |
  Mix:                               0.961     0.961   3.0% ||
  Multipole moments:                 0.001     0.001   0.0% |
  Pseudo density:                    4.161     0.012   0.0% |
   Symmetrize density:               4.149     4.149  12.8% |----|
 Hamiltonian:                       14.552     0.001   0.0% |
  Atomic:                            0.227     0.004   0.0% |
   XC Correction:                    0.223     0.223   0.7% |
  Calculate atomic Hamiltonians:     0.006     0.006   0.0% |
  Communicate:                       0.000     0.000   0.0% |
  Hartree integrate/restrict:        0.504     0.504   1.6% ||
  Poisson:                           5.261     0.252   0.8% |
   Communicate from 1D:              0.750     0.750   2.3% ||
   Communicate from 2D:              0.498     0.498   1.5% ||
   Communicate to 1D:                0.943     0.943   2.9% ||
   Communicate to 2D:                0.739     0.739   2.3% ||
   FFT 1D:                           0.677     0.677   2.1% ||
   FFT 2D:                           1.402     1.402   4.3% |-|
  XC 3D grid:                        8.269     8.269  25.4% |---------|
  vbar:                              0.284     0.284   0.9% |
 Orthonormalize:                     0.004     0.000   0.0% |
  calc_s_matrix:                     0.000     0.000   0.0% |
  inverse-cholesky:                  0.000     0.000   0.0% |
  projections:                       0.000     0.000   0.0% |
  rotate_psi_s:                      0.003     0.003   0.0% |
Set symmetry:                        0.005     0.005   0.0% |
Other:                               8.773     8.773  27.0% |----------|
-----------------------------------------------------------
Total:                                        32.493 100.0%

Memory usage: 840.07 MiB
Date: Mon Mar  2 06:18:08 2026
