
  ___ ___ ___ _ _ _  
 |   |   |_  | | | | 
 | | | | | . | | | | 
 |__ |  _|___|_____|  25.7.0
 |___|_|             

User:   coder@vm-rockland-6674d4f778-lf4ct
Date:   Mon Mar  2 02:19:00 2026
Arch:   x86_64
Pid:    285957
CWD:    /home/coder/project_dft_tests
Python: 3.12.3
gpaw:   /home/coder/dft_env/lib/python3.12/site-packages/gpaw
_gpaw:  /home/coder/dft_env/lib/python3.12/site-packages/
        _gpaw.cpython-312-x86_64-linux-gnu.so
ase:    /home/coder/dft_env/lib/python3.12/site-packages/ase (version 3.27.0)
numpy:  /home/coder/dft_env/lib/python3.12/site-packages/numpy (version 2.4.2)
scipy:  /home/coder/dft_env/lib/python3.12/site-packages/scipy (version 1.17.1)
libxc:  2.x.y
units:  Angstrom and eV
cores: 1
OpenMP: False
OMP_NUM_THREADS: 1

Input parameters:
  convergence: {energy: 1e-05}
  h: 0.18
  mode: fd
  xc: PBE

System changes: positions, numbers, cell, pbc, initial_charges, initial_magmoms 

Initialize ...

species:
  H:
    name: Hydrogen
    id: d65de229564ff8ea4db303e23b6d1ecf
    Z: 1.0
    valence: 1
    core: 0
    charge: 0.0
    file: /home/coder/dft_env/lib/python3.12/site-packages/gpaw_data/setups/H.PBE.gz
    compensation charges: {type: gauss,
                           rc: 0.15,
                           lmax: 2}
    cutoffs: {filter: 0.85,
              core: 0.53}
    projectors:
      #              energy  rcut
      - 1s(1.00)    -6.494   0.476
      -  s          20.717   0.476
      -  p           0.000   0.476
  
    # Using partial waves for H as LCAO basis

Reference energy: -24.980324  # eV

Spin-paired calculation

Convergence criteria:
 Maximum [total energy] change in last 3 cyles: 1e-05 eV / valence electron
 Maximum integral of absolute [dens]ity change: 0.0001 electrons / valence electron
 Maximum integral of absolute [eigenst]ate change: 4e-08 eV^2 / valence electron
 Maximum number of scf [iter]ations: 333
 (Square brackets indicate name in SCF output, whereas a 'c' in
 the SCF output indicates the quantity has converged.)

Symmetries present (total): 16

  ( 1  0  0)  ( 1  0  0)  ( 1  0  0)  ( 1  0  0)  ( 1  0  0)  ( 1  0  0)
  ( 0  1  0)  ( 0  1  0)  ( 0  0  1)  ( 0  0  1)  ( 0  0 -1)  ( 0  0 -1)
  ( 0  0  1)  ( 0  0 -1)  ( 0  1  0)  ( 0 -1  0)  ( 0  1  0)  ( 0 -1  0)

  ( 1  0  0)  ( 1  0  0)  (-1  0  0)  (-1  0  0)  (-1  0  0)  (-1  0  0)
  ( 0 -1  0)  ( 0 -1  0)  ( 0  1  0)  ( 0  1  0)  ( 0  0  1)  ( 0  0  1)
  ( 0  0  1)  ( 0  0 -1)  ( 0  0  1)  ( 0  0 -1)  ( 0  1  0)  ( 0 -1  0)

  (-1  0  0)  (-1  0  0)  (-1  0  0)  (-1  0  0)
  ( 0  0 -1)  ( 0  0 -1)  ( 0 -1  0)  ( 0 -1  0)
  ( 0  1  0)  ( 0 -1  0)  ( 0  0  1)  ( 0  0 -1)

1 k-point (Gamma)
1 k-point in the irreducible part of the Brillouin zone
       k-points in crystal coordinates                weights
   0:     0.00000000    0.00000000    0.00000000          1/1

Wave functions: Uniform real-space grid
  Kinetic energy operator: 6*3+1=19 point O(h^6) finite-difference Laplacian
  ScaLapack parameters: grid=1x1, blocksize=None
  Wavefunction extrapolation:
    Improved wavefunction reuse through dual PAW basis 

Occupation numbers: Fermi-Dirac:
  width: 0.1000  # eV
 

Eigensolver
   Davidson(niter=2) 

Densities:
  Coarse grid: 80*76*76 grid
  Fine grid: 160*152*152 grid
  Total Charge: 0.000000 

Density mixing:
  Method: separate
  Backend: pulay
  Linear mixing parameter: 0.05
  old densities: 5
  Damping of long wavelength oscillations: 50 

Hamiltonian:
  XC and Coulomb potentials evaluated on a 160*152*152 grid
  Using the PBE Exchange-Correlation functional
  Interpolation: tri-quintic (5. degree polynomial)
  Poisson solver: FastPoissonSolver using
    Stencil: 6*3+1=19 point O(h^6) finite-difference Laplacian
    FFT axes: [np.int64(0), np.int64(1), np.int64(2)]
    FST axes: []
 

XC parameters: PBE with 2 nearest neighbor stencil

Memory estimate:
  Process memory now: 548.99 MiB
  Calculator: 219.29 MiB
    Density: 127.55 MiB
      Arrays: 91.66 MiB
      Localized functions: 0.64 MiB
      Mixer: 35.25 MiB
    Hamiltonian: 59.98 MiB
      Arrays: 59.93 MiB
      XC: 0.00 MiB
      Poisson: 0.00 MiB
      vbar: 0.05 MiB
    Wavefunctions: 31.76 MiB
      Arrays psit_nG: 7.05 MiB
      Eigensolver: 24.68 MiB
      Projections: 0.00 MiB
      Projectors: 0.03 MiB

Total number of cores used: 1

Number of atoms: 2
Number of atomic orbitals: 2
Number of bands in calculation: 2
Number of valence electrons: 2
Bands to converge: occupied

... initialized

Initializing position-dependent things.

Density initialized from atomic densities
Creating initial wave functions:
  2 bands from LCAO basis set

          .-----------------------------------.  
         /|                                   |  
        / |                                   |  
       /  |                                   |  
      /   |                                   |  
     /    |                                   |  
    /     |                                   |  
   /      |                                   |  
  /       |                                   |  
 *        |                                   |  
 |        |                                   |  
 |        |                                   |  
 |        |                                   |  
 |        |            HH                     |  
 |        |                                   |  
 |        |                                   |  
 |        |                                   |  
 |        .-----------------------------------.  
 |       /                                   /   
 |      /                                   /    
 |     /                                   /     
 |    /                                   /      
 |   /                                   /       
 |  /                                   /        
 | /                                   /         
 |/                                   /          
 *-----------------------------------*           

Atomic positions and initial magnetic moments

Positions:
   0 H      7.000000    7.000000    7.000000    ( 0.0000,  0.0000,  0.0000)
   1 H      7.740000    7.000000    7.000000    ( 0.0000,  0.0000,  0.0000)

Unit cell:
           periodic     x           y           z      points  spacing
  1. axis:    yes   14.740000    0.000000    0.000000    80     0.1842
  2. axis:    yes    0.000000   14.000000    0.000000    76     0.1842
  3. axis:    yes    0.000000    0.000000   14.000000    76     0.1842

  Lengths:  14.740000  14.000000  14.000000
  Angles:   90.000000  90.000000  90.000000

Effective grid spacing dv^(1/3) = 0.1842

     iter     time        total  log10-change:
                         energy   eigst   dens
iter:   1 02:19:07    -7.367327
iter:   2 02:19:09    -7.337738   +0.53  -0.43
iter:   3 02:19:10    -8.284409   +0.64  -0.44
iter:   4 02:19:12    -6.749375   +0.53  -0.21
iter:   5 02:19:14    -6.749023   -0.70  -1.54
iter:   6 02:19:16    -6.752131   -0.98  -1.75
iter:   7 02:19:18    -6.748140   -1.34  -1.53
iter:   8 02:19:20    -6.748147   -1.81  -2.35
iter:   9 02:19:21    -6.748195   -2.24  -2.83
iter:  10 02:19:23    -6.748176   -4.36  -2.48
iter:  11 02:19:25    -6.748165   -4.21  -2.77
iter:  12 02:19:27    -6.748165c  -5.11  -3.88
iter:  13 02:19:29    -6.748166c  -5.26  -3.92
iter:  14 02:19:30    -6.748166c  -5.92  -3.83
iter:  15 02:19:32    -6.748166c  -6.52  -4.69c
iter:  16 02:19:34    -6.748166c  -7.25  -4.92c
iter:  17 02:19:36    -6.748166c  -7.84c -4.91c

Converged after 17 iterations.

Dipole moment: (0.000000, 0.000000, 0.000000) |e|*Ang

Energy contributions relative to reference atoms: (reference = -24.980324)

Kinetic:         +6.859646
Potential:       -8.459632
External:        +0.000000
XC:              -5.127953
Entropy (-ST):   -0.000000
Local:           -0.020226
SIC:             +0.000000
--------------------------
Free energy:     -6.748166
Extrapolated:    -6.748166

 Band  Eigenvalues  Occupancy
    0    -10.37673    2.00000
    1      0.26261    0.00000

Fermi level: -6.90666

Gap: 10.639 eV
Transition (v -> c):
  (s=0, k=0, n=0, [0.00, 0.00, 0.00]) -> (s=0, k=0, n=1, [0.00, 0.00, 0.00])
No difference between direct/indirect transitions

Forces in eV/Ang:
  0 H    -0.38924    0.00000    0.00000
  1 H     0.38924    0.00000    0.00000

System changes: positions 

Initializing position-dependent things.

Density initialized from wave functions
          .-----------------------------------.  
         /|                                   |  
        / |                                   |  
       /  |                                   |  
      /   |                                   |  
     /    |                                   |  
    /     |                                   |  
   /      |                                   |  
  /       |                                   |  
 *        |                                   |  
 |        |                                   |  
 |        |                                   |  
 |        |                                   |  
 |        |            HH                     |  
 |        |                                   |  
 |        |                                   |  
 |        |                                   |  
 |        .-----------------------------------.  
 |       /                                   /   
 |      /                                   /    
 |     /                                   /     
 |    /                                   /      
 |   /                                   /       
 |  /                                   /        
 | /                                   /         
 |/                                   /          
 *-----------------------------------*           

Atomic positions and initial magnetic moments

Positions:
   0 H      6.994439    7.000000    7.000000    ( 0.0000,  0.0000,  0.0000)
   1 H      7.745561    7.000000    7.000000    ( 0.0000,  0.0000,  0.0000)

Unit cell:
           periodic     x           y           z      points  spacing
  1. axis:    yes   14.740000    0.000000    0.000000    80     0.1842
  2. axis:    yes    0.000000   14.000000    0.000000    76     0.1842
  3. axis:    yes    0.000000    0.000000   14.000000    76     0.1842

  Lengths:  14.740000  14.000000  14.000000
  Angles:   90.000000  90.000000  90.000000

Effective grid spacing dv^(1/3) = 0.1842

     iter     time        total  log10-change:
                         energy   eigst   dens
iter:   1 02:19:38    -6.750281   -1.59
iter:   2 02:19:39    -6.750299   -2.59  -2.45
iter:   3 02:19:41    -6.750360   -2.65  -2.41
iter:   4 02:19:43    -6.750263   -2.91  -2.23
iter:   5 02:19:45    -6.750260   -4.31  -3.01
iter:   6 02:19:47    -6.750260c  -5.43  -3.19
iter:   7 02:19:49    -6.750259c  -5.08  -3.29
iter:   8 02:19:50    -6.750259c  -5.85  -3.70
iter:   9 02:19:52    -6.750259c  -6.92  -3.78
iter:  10 02:19:54    -6.750259c  -6.45  -3.83
iter:  11 02:19:56    -6.750259c  -7.48c -4.94c

Converged after 11 iterations.

Dipole moment: (0.000000, 0.000000, 0.000000) |e|*Ang

Energy contributions relative to reference atoms: (reference = -24.980324)

Kinetic:         +6.569770
Potential:       -8.267847
External:        +0.000000
XC:              -5.032314
Entropy (-ST):   -0.000000
Local:           -0.019869
SIC:             +0.000000
--------------------------
Free energy:     -6.750259
Extrapolated:    -6.750259

 Band  Eigenvalues  Occupancy
    0    -10.32292    2.00000
    1      0.21221    0.00000

Fermi level: -6.90666

Gap: 10.535 eV
Transition (v -> c):
  (s=0, k=0, n=0, [0.00, 0.00, 0.00]) -> (s=0, k=0, n=1, [0.00, 0.00, 0.00])
No difference between direct/indirect transitions

Forces in eV/Ang:
  0 H     0.00744    0.00000    0.00000
  1 H    -0.00744    0.00000    0.00000

Timing:                                      incl.     excl.
-------------------------------------------------------------------
Density initialized from wave functions:     0.132     0.048   0.0% |
 Symmetrize density:                         0.084     0.084   0.0% |
Forces:                                      0.095     0.095   0.0% |
Hamiltonian:                                 2.849     0.000   0.0% |
 Atomic:                                     0.052     0.001   0.0% |
  XC Correction:                             0.051     0.051   0.0% |
 Calculate atomic Hamiltonians:              0.001     0.001   0.0% |
 Communicate:                                0.000     0.000   0.0% |
 Hartree integrate/restrict:                 0.142     0.142   0.1% |
 Initialize Hamiltonian:                     0.000     0.000   0.0% |
 Poisson:                                    1.416     0.054   0.0% |
  Communicate from 1D:                       0.213     0.213   0.1% |
  Communicate from 2D:                       0.222     0.222   0.1% |
  Communicate to 1D:                         0.168     0.168   0.1% |
  Communicate to 2D:                         0.211     0.211   0.1% |
  FFT 1D:                                    0.185     0.185   0.1% |
  FFT 2D:                                    0.362     0.362   0.1% |
 XC 3D grid:                                 1.201     1.201   0.5% |
 vbar:                                       0.036     0.036   0.0% |
LCAO initialization:                         0.009     0.002   0.0% |
 LCAO eigensolver:                           0.002     0.000   0.0% |
  Calculate projections:                     0.000     0.000   0.0% |
  DenseAtomicCorrection:                     0.000     0.000   0.0% |
  Distribute overlap matrix:                 0.000     0.000   0.0% |
  Orbital Layouts:                           0.000     0.000   0.0% |
  Potential matrix:                          0.001     0.001   0.0% |
 LCAO to grid:                               0.001     0.001   0.0% |
 Set positions (LCAO WFS):                   0.004     0.000   0.0% |
  Basic WFS set positions:                   0.001     0.001   0.0% |
  Basis functions set positions:             0.000     0.000   0.0% |
  P tci:                                     0.001     0.001   0.0% |
  ST tci:                                    0.000     0.000   0.0% |
  mktci:                                     0.001     0.001   0.0% |
Redistribute:                                0.000     0.000   0.0% |
SCF-cycle:                                  47.482     0.014   0.0% |
 Davidson:                                   5.855     2.224   0.9% |
  Apply hamiltonian:                         0.292     0.292   0.1% |
  Subspace diag:                             1.548     0.002   0.0% |
   calc_h_matrix:                            0.991     0.051   0.0% |
    Apply hamiltonian:                       0.940     0.940   0.4% |
   diagonalize:                              0.004     0.004   0.0% |
   rotate_psi:                               0.551     0.551   0.2% |
  calc. matrices:                            1.325     0.296   0.1% |
   Apply hamiltonian:                        1.029     1.029   0.4% |
  diagonalize:                               0.039     0.039   0.0% |
  rotate_psi:                                0.428     0.428   0.2% |
 Density:                                    5.118     0.000   0.0% |
  Atomic density matrices:                   0.010     0.010   0.0% |
  Mix:                                       2.102     2.102   0.8% |
  Multipole moments:                         0.002     0.002   0.0% |
  Pseudo density:                            3.005     0.150   0.1% |
   Symmetrize density:                       2.855     2.855   1.2% |
 Hamiltonian:                               36.484     0.002   0.0% |
  Atomic:                                    0.775     0.012   0.0% |
   XC Correction:                            0.763     0.763   0.3% |
  Calculate atomic Hamiltonians:             0.013     0.013   0.0% |
  Communicate:                               0.000     0.000   0.0% |
  Hartree integrate/restrict:                1.586     1.586   0.6% |
  Poisson:                                  18.380     0.665   0.3% |
   Communicate from 1D:                      2.759     2.759   1.1% |
   Communicate from 2D:                      2.883     2.883   1.2% |
   Communicate to 1D:                        2.122     2.122   0.9% |
   Communicate to 2D:                        2.780     2.780   1.1% |
   FFT 1D:                                   2.437     2.437   1.0% |
   FFT 2D:                                   4.734     4.734   1.9% ||
  XC 3D grid:                               15.335    15.335   6.2% |-|
  vbar:                                      0.394     0.394   0.2% |
 Orthonormalize:                             0.011     0.000   0.0% |
  calc_s_matrix:                             0.002     0.002   0.0% |
  inverse-cholesky:                          0.000     0.000   0.0% |
  projections:                               0.000     0.000   0.0% |
  rotate_psi_s:                              0.008     0.008   0.0% |
Set symmetry:                                0.002     0.002   0.0% |
Other:                                     196.963   196.963  79.6% |-------------------------------|
-------------------------------------------------------------------
Total:                                               247.532 100.0%

Memory usage: 1.12 GiB
Date: Mon Mar  2 02:23:08 2026
