
  ___ ___ ___ _ _ _  
 |   |   |_  | | | | 
 | | | | | . | | | | 
 |__ |  _|___|_____|  25.7.0
 |___|_|             

User:   coder@vm-rockland-6674d4f778-lf4ct
Date:   Mon Mar  2 07:06:07 2026
Arch:   x86_64
Pid:    729663
CWD:    /home/coder/project_dft_tests
Python: 3.12.3
gpaw:   /home/coder/dft_env/lib/python3.12/site-packages/gpaw
_gpaw:  /home/coder/dft_env/lib/python3.12/site-packages/
        _gpaw.cpython-312-x86_64-linux-gnu.so
ase:    /home/coder/dft_env/lib/python3.12/site-packages/ase (version 3.27.0)
numpy:  /home/coder/dft_env/lib/python3.12/site-packages/numpy (version 2.4.2)
scipy:  /home/coder/dft_env/lib/python3.12/site-packages/scipy (version 1.17.1)
libxc:  2.x.y
units:  Angstrom and eV
cores: 1
OpenMP: False
OMP_NUM_THREADS: 1

Input parameters:
  convergence: {energy: 1e-05}
  h: 0.18
  mode: fd
  xc: PBE

System changes: positions, numbers, cell, pbc, initial_charges, initial_magmoms 

Initialize ...

species:
  H:
    name: Hydrogen
    id: d65de229564ff8ea4db303e23b6d1ecf
    Z: 1.0
    valence: 1
    core: 0
    charge: 0.0
    file: /home/coder/dft_env/lib/python3.12/site-packages/gpaw_data/setups/H.PBE.gz
    compensation charges: {type: gauss,
                           rc: 0.15,
                           lmax: 2}
    cutoffs: {filter: 0.85,
              core: 0.53}
    projectors:
      #              energy  rcut
      - 1s(1.00)    -6.494   0.476
      -  s          20.717   0.476
      -  p           0.000   0.476
  
    # Using partial waves for H as LCAO basis

Reference energy: -24.980324  # eV

Spin-paired calculation

Convergence criteria:
 Maximum [total energy] change in last 3 cyles: 1e-05 eV / valence electron
 Maximum integral of absolute [dens]ity change: 0.0001 electrons / valence electron
 Maximum integral of absolute [eigenst]ate change: 4e-08 eV^2 / valence electron
 Maximum number of scf [iter]ations: 333
 (Square brackets indicate name in SCF output, whereas a 'c' in
 the SCF output indicates the quantity has converged.)

Symmetries present (total): 16

  ( 1  0  0)  ( 1  0  0)  ( 1  0  0)  ( 1  0  0)  ( 0  1  0)  ( 0  1  0)
  ( 0  1  0)  ( 0  1  0)  ( 0 -1  0)  ( 0 -1  0)  ( 1  0  0)  ( 1  0  0)
  ( 0  0  1)  ( 0  0 -1)  ( 0  0  1)  ( 0  0 -1)  ( 0  0  1)  ( 0  0 -1)

  ( 0  1  0)  ( 0  1  0)  ( 0 -1  0)  ( 0 -1  0)  ( 0 -1  0)  ( 0 -1  0)
  (-1  0  0)  (-1  0  0)  ( 1  0  0)  ( 1  0  0)  (-1  0  0)  (-1  0  0)
  ( 0  0  1)  ( 0  0 -1)  ( 0  0  1)  ( 0  0 -1)  ( 0  0  1)  ( 0  0 -1)

  (-1  0  0)  (-1  0  0)  (-1  0  0)  (-1  0  0)
  ( 0  1  0)  ( 0  1  0)  ( 0 -1  0)  ( 0 -1  0)
  ( 0  0  1)  ( 0  0 -1)  ( 0  0  1)  ( 0  0 -1)

1 k-point (Gamma)
1 k-point in the irreducible part of the Brillouin zone
       k-points in crystal coordinates                weights
   0:     0.00000000    0.00000000    0.00000000          1/1

Wave functions: Uniform real-space grid
  Kinetic energy operator: 6*3+1=19 point O(h^6) finite-difference Laplacian
  ScaLapack parameters: grid=1x1, blocksize=None
  Wavefunction extrapolation:
    Improved wavefunction reuse through dual PAW basis 

Occupation numbers: # Zero width 

Eigensolver
   Davidson(niter=2) 

Densities:
  Coarse grid: 76*76*80 grid
  Fine grid: 152*152*160 grid
  Total Charge: 0.000000 

Density mixing:
  Method: separate
  Backend: pulay
  Linear mixing parameter: 0.25
  old densities: 3
  Damping of long wavelength oscillations: 1  # (no daming) 

Hamiltonian:
  XC and Coulomb potentials evaluated on a 152*152*160 grid
  Using the PBE Exchange-Correlation functional
  Interpolation: tri-quintic (5. degree polynomial)
  Poisson solver: FastPoissonSolver using
    Stencil: 6*3+1=19 point O(h^6) finite-difference Laplacian
    FFT axes: []
    FST axes: [np.int64(0), np.int64(1), np.int64(2)]
 

XC parameters: PBE with 2 nearest neighbor stencil

Memory estimate:
  Process memory now: 487.35 MiB
  Calculator: 200.04 MiB
    Density: 110.74 MiB
      Arrays: 89.76 MiB
      Localized functions: 0.64 MiB
      Mixer: 20.34 MiB
    Hamiltonian: 58.76 MiB
      Arrays: 58.71 MiB
      XC: 0.00 MiB
      Poisson: 0.00 MiB
      vbar: 0.05 MiB
    Wavefunctions: 30.54 MiB
      Arrays psit_nG: 6.78 MiB
      Eigensolver: 23.73 MiB
      Projections: 0.00 MiB
      Projectors: 0.03 MiB

Total number of cores used: 1

Number of atoms: 2
Number of atomic orbitals: 2
Number of bands in calculation: 2
Number of valence electrons: 2
Bands to converge: occupied

... initialized

Initializing position-dependent things.

Density initialized from atomic densities
Creating initial wave functions:
  2 bands from LCAO basis set

          .---------------------------------.  
         /|                                 |  
        / |                                 |  
       /  |                                 |  
      /   |                                 |  
     /    |                                 |  
    /     |                                 |  
   /      |                                 |  
  /       |                                 |  
 *        |                                 |  
 |        |                                 |  
 |        |                                 |  
 |        |                                 |  
 |        |            H                    |  
 |        |            H                    |  
 |        |                                 |  
 |        |                                 |  
 |        |                                 |  
 |        .---------------------------------.  
 |       /                                 /   
 |      /                                 /    
 |     /                                 /     
 |    /                                 /      
 |   /                                 /       
 |  /                                 /        
 | /                                 /         
 |/                                 /          
 *---------------------------------*           

Atomic positions and initial magnetic moments

Positions:
   0 H      7.000000    7.000000    7.000000    ( 0.0000,  0.0000,  0.0000)
   1 H      7.000000    7.000000    7.751122    ( 0.0000,  0.0000,  0.0000)

Unit cell:
           periodic     x           y           z      points  spacing
  1. axis:    no    14.000000    0.000000    0.000000    76     0.1842
  2. axis:    no     0.000000   14.000000    0.000000    76     0.1842
  3. axis:    no     0.000000    0.000000   14.751122    80     0.1844

  Lengths:  14.000000  14.000000  14.751122
  Angles:   90.000000  90.000000  90.000000

Effective grid spacing dv^(1/3) = 0.1843

     iter     time        total  log10-change:
                         energy   eigst   dens
iter:   1 07:06:13    -7.347286
iter:   2 07:06:15    -7.080067   +0.36  -0.44
iter:   3 07:06:17    -6.798784   +0.67  -0.56
iter:   4 07:06:19    -6.749566   -0.13  -1.00
iter:   5 07:06:21    -6.750055   -0.78  -1.89
iter:   6 07:06:23    -6.750646   -2.79  -2.25
iter:   7 07:06:25    -6.750332   -2.50  -2.00
iter:   8 07:06:27    -6.750238   -2.93  -2.28
iter:   9 07:06:29    -6.750235   -3.86  -3.03
iter:  10 07:06:30    -6.750235c  -4.83  -3.65
iter:  11 07:06:33    -6.750235c  -4.76  -3.62
iter:  12 07:06:34    -6.750235c  -6.43  -3.59
iter:  13 07:06:37    -6.750235c  -6.13  -3.70
iter:  14 07:06:39    -6.750235c  -5.77  -3.95
iter:  15 07:06:40    -6.750235c  -5.96  -3.83
iter:  16 07:06:43    -6.750235c  -6.65  -4.66c
iter:  17 07:06:45    -6.750235c  -8.44c -4.77c

Converged after 17 iterations.

Dipole moment: (-0.000000, -0.000000, -0.000000) |e|*Ang

Energy contributions relative to reference atoms: (reference = -24.980324)

Kinetic:         +6.569549
Potential:       -8.267613
External:        +0.000000
XC:              -5.032221
Entropy (-ST):   +0.000000
Local:           -0.019950
SIC:             +0.000000
--------------------------
Free energy:     -6.750235
Extrapolated:    -6.750235

 Band  Eigenvalues  Occupancy
    0    -10.33523    2.00000
    1      0.23745    0.00000

Fermi level: -5.04889

Gap: 10.573 eV
Transition (v -> c):
  (s=0, k=0, n=0, [0.00, 0.00, 0.00]) -> (s=0, k=0, n=1, [0.00, 0.00, 0.00])
No difference between direct/indirect transitions
Writing to runs/H2/final.gpw (mode='')

Timing:                              incl.     excl.
-----------------------------------------------------------
Hamiltonian:                         1.169     0.000   0.0% |
 Atomic:                             0.052     0.000   0.0% |
  XC Correction:                     0.052     0.052   0.1% |
 Calculate atomic Hamiltonians:      0.000     0.000   0.0% |
 Communicate:                        0.000     0.000   0.0% |
 Hartree integrate/restrict:         0.038     0.038   0.1% |
 Initialize Hamiltonian:             0.000     0.000   0.0% |
 Poisson:                            0.333     0.029   0.1% |
  Communicate from 1D:               0.041     0.041   0.1% |
  Communicate from 2D:               0.030     0.030   0.1% |
  Communicate to 1D:                 0.062     0.062   0.2% |
  Communicate to 2D:                 0.041     0.041   0.1% |
  FFT 1D:                            0.032     0.032   0.1% |
  FFT 2D:                            0.098     0.098   0.3% |
 XC 3D grid:                         0.729     0.729   1.9% ||
 vbar:                               0.017     0.017   0.0% |
LCAO initialization:                 0.008     0.002   0.0% |
 LCAO eigensolver:                   0.002     0.000   0.0% |
  Calculate projections:             0.000     0.000   0.0% |
  DenseAtomicCorrection:             0.000     0.000   0.0% |
  Distribute overlap matrix:         0.000     0.000   0.0% |
  Orbital Layouts:                   0.000     0.000   0.0% |
  Potential matrix:                  0.001     0.001   0.0% |
 LCAO to grid:                       0.001     0.001   0.0% |
 Set positions (LCAO WFS):           0.003     0.000   0.0% |
  Basic WFS set positions:           0.001     0.001   0.0% |
  Basis functions set positions:     0.000     0.000   0.0% |
  P tci:                             0.001     0.001   0.0% |
  ST tci:                            0.000     0.000   0.0% |
  mktci:                             0.001     0.001   0.0% |
SCF-cycle:                          31.701     0.008   0.0% |
 Davidson:                           6.892     4.533  12.1% |----|
  Apply hamiltonian:                 0.186     0.186   0.5% |
  Subspace diag:                     0.999     0.001   0.0% |
   calc_h_matrix:                    0.542     0.084   0.2% |
    Apply hamiltonian:               0.458     0.458   1.2% |
   diagonalize:                      0.003     0.003   0.0% |
   rotate_psi:                       0.453     0.453   1.2% |
  calc. matrices:                    0.978     0.242   0.6% |
   Apply hamiltonian:                0.736     0.736   2.0% ||
  diagonalize:                       0.004     0.004   0.0% |
  rotate_psi:                        0.192     0.192   0.5% |
 Density:                            6.033     0.000   0.0% |
  Atomic density matrices:           0.006     0.006   0.0% |
  Mix:                               4.532     4.532  12.1% |----|
  Multipole moments:                 0.001     0.001   0.0% |
  Pseudo density:                    1.493     0.064   0.2% |
   Symmetrize density:               1.429     1.429   3.8% |-|
 Hamiltonian:                       18.762     0.001   0.0% |
  Atomic:                            0.444     0.006   0.0% |
   XC Correction:                    0.438     0.438   1.2% |
  Calculate atomic Hamiltonians:     0.008     0.008   0.0% |
  Communicate:                       0.000     0.000   0.0% |
  Hartree integrate/restrict:        0.796     0.796   2.1% ||
  Poisson:                           5.247     0.292   0.8% |
   Communicate from 1D:              0.681     0.681   1.8% ||
   Communicate from 2D:              0.483     0.483   1.3% ||
   Communicate to 1D:                1.027     1.027   2.7% ||
   Communicate to 2D:                0.662     0.662   1.8% ||
   FFT 1D:                           0.509     0.509   1.4% ||
   FFT 2D:                           1.594     1.594   4.3% |-|
  XC 3D grid:                       11.971    11.971  32.0% |------------|
  vbar:                              0.295     0.295   0.8% |
 Orthonormalize:                     0.008     0.000   0.0% |
  calc_s_matrix:                     0.001     0.001   0.0% |
  inverse-cholesky:                  0.000     0.000   0.0% |
  projections:                       0.000     0.000   0.0% |
  rotate_psi_s:                      0.006     0.006   0.0% |
Set symmetry:                        0.002     0.002   0.0% |
Other:                               4.520     4.520  12.1% |----|
-----------------------------------------------------------
Total:                                        37.400 100.0%

Memory usage: 590.45 MiB
Date: Mon Mar  2 07:06:45 2026
