2
Lattice="15.129999999999999 0.0 0.0 0.0 14.0 0.0 0.0 0.0 14.0" Properties=species:S:1:pos:R:3:magmoms:R:1:forces:R:3 energy=-15.225200778592928 free_energy=-15.225200778595973 dipole="0.041698304197617005 2.192857842264232e-09 2.192856114677908e-09" magmom=0.0 pbc="T T T"
C        6.94144424       7.00000000       7.00000000       0.00000000       0.01708806       0.00000000       0.00000000
O        8.07832704       7.00000000       7.00000000       0.00000000       0.00297768       0.00000000       0.00000000
