2
Lattice="14.0 0.0 0.0 0.0 14.0 0.0 0.0 0.0 15.129999999999999" Properties=species:S:1:pos:R:3:magmoms:R:1:forces:R:3 energy=-15.225435120068026 free_energy=-15.225435120068026 dipole="-2.9255832139875766e-14 -2.7528245824842853e-14 0.04198274880310028" magmom=0.0 pbc="F F F"
C        7.00000000       7.00000000       6.99622897       0.00000000       0.00000000       0.00000000      -0.01683484
O        7.00000000       7.00000000       8.13276451       0.00000000       0.00000000       0.00000000      -0.01212354
