
  ___ ___ ___ _ _ _  
 |   |   |_  | | | | 
 | | | | | . | | | | 
 |__ |  _|___|_____|  25.7.0
 |___|_|             

User:   coder@vm-rockland-6674d4f778-lf4ct
Date:   Mon Mar  2 06:34:58 2026
Arch:   x86_64
Pid:    680339
CWD:    /home/coder/project_dft_tests
Python: 3.12.3
gpaw:   /home/coder/dft_env/lib/python3.12/site-packages/gpaw
_gpaw:  /home/coder/dft_env/lib/python3.12/site-packages/
        _gpaw.cpython-312-x86_64-linux-gnu.so
ase:    /home/coder/dft_env/lib/python3.12/site-packages/ase (version 3.27.0)
numpy:  /home/coder/dft_env/lib/python3.12/site-packages/numpy (version 2.4.2)
scipy:  /home/coder/dft_env/lib/python3.12/site-packages/scipy (version 1.17.1)
libxc:  2.x.y
units:  Angstrom and eV
cores: 1
OpenMP: False
OMP_NUM_THREADS: 1

Input parameters:
  convergence: {energy: 1e-05}
  h: 0.18
  mode: fd
  xc: PBE

System changes: positions, numbers, cell, pbc, initial_charges, initial_magmoms 

Initialize ...

species:
  C:
    name: Carbon
    id: 4aa54d4b901d75f77cc0ea3eec22967b
    Z: 6.0
    valence: 4
    core: 2
    charge: 0.0
    file: /home/coder/dft_env/lib/python3.12/site-packages/gpaw_data/setups/C.PBE.gz
    compensation charges: {type: gauss,
                           rc: 0.20,
                           lmax: 2}
    cutoffs: {filter: 1.14,
              core: 1.14}
    projectors:
      #              energy  rcut
      - 2s(2.00)   -13.751   0.635
      - 2p(2.00)    -5.284   0.635
      -  s          13.461   0.635
      -  p          21.927   0.635
      -  d           0.000   0.635
  
    # Using partial waves for C as LCAO basis

  O:
    name: Oxygen
    id: 32ecd46bf208036f09c70b0ec9a88b78
    Z: 8.0
    valence: 6
    core: 2
    charge: 0.0
    file: /home/coder/dft_env/lib/python3.12/site-packages/gpaw_data/setups/O.PBE.gz
    compensation charges: {type: gauss,
                           rc: 0.21,
                           lmax: 2}
    cutoffs: {filter: 1.17,
              core: 0.83}
    projectors:
      #              energy  rcut
      - 2s(2.00)   -23.961   0.688
      - 2p(4.00)    -9.029   0.598
      -  s           3.251   0.688
      -  p          18.182   0.598
      -  d           0.000   0.619
  
    # Using partial waves for O as LCAO basis

Reference energy: -3068.480417  # eV

Spin-paired calculation

Convergence criteria:
 Maximum [total energy] change in last 3 cyles: 1e-05 eV / valence electron
 Maximum integral of absolute [dens]ity change: 0.0001 electrons / valence electron
 Maximum integral of absolute [eigenst]ate change: 4e-08 eV^2 / valence electron
 Maximum number of scf [iter]ations: 333
 (Square brackets indicate name in SCF output, whereas a 'c' in
 the SCF output indicates the quantity has converged.)

Symmetries present (total): 8

  ( 1  0  0)  ( 1  0  0)  ( 0  1  0)  ( 0  1  0)  ( 0 -1  0)  ( 0 -1  0)
  ( 0  1  0)  ( 0 -1  0)  ( 1  0  0)  (-1  0  0)  ( 1  0  0)  (-1  0  0)
  ( 0  0  1)  ( 0  0  1)  ( 0  0  1)  ( 0  0  1)  ( 0  0  1)  ( 0  0  1)

  (-1  0  0)  (-1  0  0)
  ( 0  1  0)  ( 0 -1  0)
  ( 0  0  1)  ( 0  0  1)

1 k-point (Gamma)
1 k-point in the irreducible part of the Brillouin zone
       k-points in crystal coordinates                weights
   0:     0.00000000    0.00000000    0.00000000          1/1

Wave functions: Uniform real-space grid
  Kinetic energy operator: 6*3+1=19 point O(h^6) finite-difference Laplacian
  ScaLapack parameters: grid=1x1, blocksize=None
  Wavefunction extrapolation:
    Improved wavefunction reuse through dual PAW basis 

Occupation numbers: # Zero width 

Eigensolver
   Davidson(niter=2) 

Densities:
  Coarse grid: 76*76*84 grid
  Fine grid: 152*152*168 grid
  Total Charge: 0.000000 

Density mixing:
  Method: separate
  Backend: pulay
  Linear mixing parameter: 0.25
  old densities: 3
  Damping of long wavelength oscillations: 1  # (no daming) 

Hamiltonian:
  XC and Coulomb potentials evaluated on a 152*152*168 grid
  Using the PBE Exchange-Correlation functional
  Interpolation: tri-quintic (5. degree polynomial)
  Poisson solver: FastPoissonSolver using
    Stencil: 6*3+1=19 point O(h^6) finite-difference Laplacian
    FFT axes: []
    FST axes: [np.int64(0), np.int64(1), np.int64(2)]
 

XC parameters: PBE with 2 nearest neighbor stencil

Memory estimate:
  Process memory now: 795.60 MiB
  Calculator: 254.22 MiB
    Density: 117.41 MiB
      Arrays: 94.28 MiB
      Localized functions: 1.76 MiB
      Mixer: 21.37 MiB
    Hamiltonian: 61.79 MiB
      Arrays: 61.66 MiB
      XC: 0.00 MiB
      Poisson: 0.00 MiB
      vbar: 0.13 MiB
    Wavefunctions: 75.02 MiB
      Arrays psit_nG: 28.50 MiB
      Eigensolver: 46.31 MiB
      Projections: 0.00 MiB
      Projectors: 0.21 MiB

Total number of cores used: 1

Number of atoms: 2
Number of atomic orbitals: 8
Number of bands in calculation: 8
Number of valence electrons: 10
Bands to converge: occupied

... initialized

Initializing position-dependent things.

Density initialized from atomic densities
Creating initial wave functions:
  8 bands from LCAO basis set

          .---------------------------------.  
         /|                                 |  
        / |                                 |  
       /  |                                 |  
      /   |                                 |  
     /    |                                 |  
    /     |                                 |  
   /      |                                 |  
  /       |                                 |  
 *        |                                 |  
 |        |                                 |  
 |        |                                 |  
 |        |                                 |  
 |        |            O                    |  
 |        |                                 |  
 |        |            C                    |  
 |        |                                 |  
 |        |                                 |  
 |        |                                 |  
 |        .---------------------------------.  
 |       /                                 /   
 |      /                                 /    
 |     /                                 /     
 |    /                                 /      
 |   /                                 /       
 |  /                                 /        
 | /                                 /         
 |/                                 /          
 *---------------------------------*           

Atomic positions and initial magnetic moments

Positions:
   0 C      7.000000    7.000000    7.000000    ( 0.0000,  0.0000,  0.0000)
   1 O      7.000000    7.000000    8.130000    ( 0.0000,  0.0000,  0.0000)

Unit cell:
           periodic     x           y           z      points  spacing
  1. axis:    no    14.000000    0.000000    0.000000    76     0.1842
  2. axis:    no     0.000000   14.000000    0.000000    76     0.1842
  3. axis:    no     0.000000    0.000000   15.130000    84     0.1801

  Lengths:  14.000000  14.000000  15.130000
  Angles:   90.000000  90.000000  90.000000

Effective grid spacing dv^(1/3) = 0.1828

     iter     time        total  log10-change:
                         energy   eigst   dens
iter:   1 06:35:05   -15.860929
iter:   2 06:35:07   -15.473150   +0.47  -0.90
iter:   3 06:35:10   -15.291478   -0.12  -1.10
iter:   4 06:35:12   -15.236167   -0.24  -1.31
iter:   5 06:35:15   -15.223244   -1.13  -1.74
iter:   6 06:35:17   -15.223061   -1.59  -2.20
iter:   7 06:35:20   -15.222933   -2.77  -2.73
iter:   8 06:35:22   -15.222939   -2.98  -2.92
iter:   9 06:35:25   -15.222945c  -3.24  -3.14
iter:  10 06:35:27   -15.222921c  -3.83  -3.12
iter:  11 06:35:30   -15.222922c  -4.20  -3.62
iter:  12 06:35:33   -15.222921c  -4.76  -3.74
iter:  13 06:35:36   -15.222920c  -5.35  -3.99
iter:  14 06:35:39   -15.222920c  -5.68  -4.40c
iter:  15 06:35:42   -15.222920c  -6.58  -4.60c
iter:  16 06:35:45   -15.222920c  -6.97  -4.93c
iter:  17 06:35:47   -15.222920c  -7.31  -5.10c
iter:  18 06:35:50   -15.222920c  -7.88c -5.23c

Converged after 18 iterations.

Dipole moment: (-0.000000, -0.000000, 0.046439) |e|*Ang

Energy contributions relative to reference atoms: (reference = -3068.480417)

Kinetic:        +18.538304
Potential:      -22.812433
External:        +0.000000
XC:             -11.515206
Entropy (-ST):   +0.000000
Local:           +0.566415
SIC:             +0.000000
--------------------------
Free energy:    -15.222920
Extrapolated:   -15.222920

 Band  Eigenvalues  Occupancy
    0    -29.28478    2.00000
    1    -14.13448    2.00000
    2    -11.85213    2.00000
    3    -11.85213    2.00000
    4     -9.03866    2.00000
    5     -2.02574    0.00000
    6     -2.02574    0.00000
    7      0.18509    0.00000

Fermi level: -5.53220

Gap: 7.013 eV
Transition (v -> c):
  (s=0, k=0, n=4, [0.00, 0.00, 0.00]) -> (s=0, k=0, n=5, [0.00, 0.00, 0.00])
No difference between direct/indirect transitions

Forces in eV/Ang:
  0 C     0.00000    0.00000   -0.79228
  1 O     0.00000    0.00000    0.74021

System changes: positions 

Initializing position-dependent things.

Density initialized from wave functions
          .---------------------------------.  
         /|                                 |  
        / |                                 |  
       /  |                                 |  
      /   |                                 |  
     /    |                                 |  
    /     |                                 |  
   /      |                                 |  
  /       |                                 |  
 *        |                                 |  
 |        |                                 |  
 |        |                                 |  
 |        |                                 |  
 |        |            O                    |  
 |        |                                 |  
 |        |            C                    |  
 |        |                                 |  
 |        |                                 |  
 |        |                                 |  
 |        .---------------------------------.  
 |       /                                 /   
 |      /                                 /    
 |     /                                 /     
 |    /                                 /      
 |   /                                 /       
 |  /                                 /        
 | /                                 /         
 |/                                 /          
 *---------------------------------*           

Atomic positions and initial magnetic moments

Positions:
   0 C      7.000000    7.000000    6.988682    ( 0.0000,  0.0000,  0.0000)
   1 O      7.000000    7.000000    8.140574    ( 0.0000,  0.0000,  0.0000)

Unit cell:
           periodic     x           y           z      points  spacing
  1. axis:    no    14.000000    0.000000    0.000000    76     0.1842
  2. axis:    no     0.000000   14.000000    0.000000    76     0.1842
  3. axis:    no     0.000000    0.000000   15.130000    84     0.1801

  Lengths:  14.000000  14.000000  15.130000
  Angles:   90.000000  90.000000  90.000000

Effective grid spacing dv^(1/3) = 0.1828

     iter     time        total  log10-change:
                         energy   eigst   dens
iter:   1 06:35:53   -15.214909   -1.08
iter:   2 06:35:56   -15.213558   -1.98  -2.17
iter:   3 06:35:59   -15.212539   -2.25  -2.32
iter:   4 06:36:02   -15.212446   -2.54  -2.69
iter:   5 06:36:04   -15.212451c  -3.56  -3.14
iter:   6 06:36:07   -15.212455c  -4.14  -3.33
iter:   7 06:36:10   -15.212454c  -5.01  -3.85
iter:   8 06:36:12   -15.212454c  -5.19  -4.01c
iter:   9 06:36:15   -15.212454c  -6.14  -4.62c
iter:  10 06:36:18   -15.212454c  -6.69  -4.82c
iter:  11 06:36:20   -15.212454c  -6.99  -4.99c
iter:  12 06:36:23   -15.212454c  -7.80c -5.65c

Converged after 12 iterations.

Dipole moment: (0.000000, 0.000000, 0.031465) |e|*Ang

Energy contributions relative to reference atoms: (reference = -3068.480417)

Kinetic:        +15.569639
Potential:      -20.443465
External:        +0.000000
XC:             -10.908429
Entropy (-ST):   +0.000000
Local:           +0.569801
SIC:             +0.000000
--------------------------
Free energy:    -15.212454
Extrapolated:   -15.212454

 Band  Eigenvalues  Occupancy
    0    -28.97504    2.00000
    1    -14.14541    2.00000
    2    -11.66497    2.00000
    3    -11.66497    2.00000
    4     -9.08959    2.00000
    5     -2.23618    0.00000
    6     -2.23618    0.00000
    7      0.08654    0.00000

Fermi level: -5.66288

Gap: 6.853 eV
Transition (v -> c):
  (s=0, k=0, n=4, [0.00, 0.00, 0.00]) -> (s=0, k=0, n=5, [0.00, 0.00, 0.00])
No difference between direct/indirect transitions

Forces in eV/Ang:
  0 C     0.00000    0.00000    1.67266
  1 O    -0.00000    0.00000   -1.64389

System changes: positions 

Initializing position-dependent things.

Density initialized from wave functions
          .---------------------------------.  
         /|                                 |  
        / |                                 |  
       /  |                                 |  
      /   |                                 |  
     /    |                                 |  
    /     |                                 |  
   /      |                                 |  
  /       |                                 |  
 *        |                                 |  
 |        |                                 |  
 |        |                                 |  
 |        |                                 |  
 |        |            O                    |  
 |        |                                 |  
 |        |            C                    |  
 |        |                                 |  
 |        |                                 |  
 |        |                                 |  
 |        .---------------------------------.  
 |       /                                 /   
 |      /                                 /    
 |     /                                 /     
 |    /                                 /      
 |   /                                 /       
 |  /                                 /        
 | /                                 /         
 |/                                 /          
 *---------------------------------*           

Atomic positions and initial magnetic moments

Positions:
   0 C      7.000000    7.000000    6.996235    ( 0.0000,  0.0000,  0.0000)
   1 O      7.000000    7.000000    8.133151    ( 0.0000,  0.0000,  0.0000)

Unit cell:
           periodic     x           y           z      points  spacing
  1. axis:    no    14.000000    0.000000    0.000000    76     0.1842
  2. axis:    no     0.000000   14.000000    0.000000    76     0.1842
  3. axis:    no     0.000000    0.000000   15.130000    84     0.1801

  Lengths:  14.000000  14.000000  15.130000
  Angles:   90.000000  90.000000  90.000000

Effective grid spacing dv^(1/3) = 0.1828

     iter     time        total  log10-change:
                         energy   eigst   dens
iter:   1 06:36:26   -15.226492   -1.43
iter:   2 06:36:28   -15.225901   -2.32  -2.35
iter:   3 06:36:31   -15.225458   -2.59  -2.50
iter:   4 06:36:34   -15.225419   -2.91  -2.87
iter:   5 06:36:36   -15.225421c  -3.87  -3.30
iter:   6 06:36:39   -15.225423c  -4.50  -3.50
iter:   7 06:36:42   -15.225423c  -5.37  -4.04c
iter:   8 06:36:44   -15.225422c  -5.62  -4.21c
iter:   9 06:36:47   -15.225422c  -6.62  -4.75c
iter:  10 06:36:49   -15.225422c  -6.91  -4.88c
iter:  11 06:36:52   -15.225422c  -7.41c -5.22c

Converged after 11 iterations.

Dipole moment: (-0.000000, 0.000000, 0.041722) |e|*Ang

Energy contributions relative to reference atoms: (reference = -3068.480417)

Kinetic:        +17.568655
Potential:      -22.041874
External:        +0.000000
XC:             -11.319972
Entropy (-ST):   +0.000000
Local:           +0.567768
SIC:             +0.000000
--------------------------
Free energy:    -15.225422
Extrapolated:   -15.225422

 Band  Eigenvalues  Occupancy
    0    -29.18654    2.00000
    1    -14.13781    2.00000
    2    -11.79229    2.00000
    3    -11.79229    2.00000
    4     -9.05502    2.00000
    5     -2.09294    0.00000
    6     -2.09294    0.00000
    7      0.05713    0.00000

Fermi level: -5.57398

Gap: 6.962 eV
Transition (v -> c):
  (s=0, k=0, n=4, [0.00, 0.00, 0.00]) -> (s=0, k=0, n=5, [0.00, 0.00, 0.00])
No difference between direct/indirect transitions

Forces in eV/Ang:
  0 C     0.00000    0.00000    0.02742
  1 O     0.00000    0.00000   -0.05372

System changes: positions 

Initializing position-dependent things.

Density initialized from wave functions
          .---------------------------------.  
         /|                                 |  
        / |                                 |  
       /  |                                 |  
      /   |                                 |  
     /    |                                 |  
    /     |                                 |  
   /      |                                 |  
  /       |                                 |  
 *        |                                 |  
 |        |                                 |  
 |        |                                 |  
 |        |                                 |  
 |        |            O                    |  
 |        |                                 |  
 |        |            C                    |  
 |        |                                 |  
 |        |                                 |  
 |        |                                 |  
 |        .---------------------------------.  
 |       /                                 /   
 |      /                                 /    
 |     /                                 /     
 |    /                                 /      
 |   /                                 /       
 |  /                                 /        
 | /                                 /         
 |/                                 /          
 *---------------------------------*           

Atomic positions and initial magnetic moments

Positions:
   0 C      7.000000    7.000000    6.996229    ( 0.0000,  0.0000,  0.0000)
   1 O      7.000000    7.000000    8.132765    ( 0.0000,  0.0000,  0.0000)

Unit cell:
           periodic     x           y           z      points  spacing
  1. axis:    no    14.000000    0.000000    0.000000    76     0.1842
  2. axis:    no     0.000000   14.000000    0.000000    76     0.1842
  3. axis:    no     0.000000    0.000000   15.130000    84     0.1801

  Lengths:  14.000000  14.000000  15.130000
  Angles:   90.000000  90.000000  90.000000

Effective grid spacing dv^(1/3) = 0.1828

     iter     time        total  log10-change:
                         energy   eigst   dens
iter:   1 06:36:54   -15.225436   -4.45
iter:   2 06:36:57   -15.225435   -5.43  -3.93
iter:   3 06:36:59   -15.225435c  -5.37  -4.06c
iter:   4 06:37:02   -15.225435c  -6.49  -4.65c
iter:   5 06:37:04   -15.225435c  -6.62  -4.87c
iter:   6 06:37:07   -15.225435c  -7.27  -4.94c
iter:   7 06:37:09   -15.225435c  -8.12c -5.55c

Converged after 7 iterations.

Dipole moment: (-0.000000, -0.000000, 0.041983) |e|*Ang

Energy contributions relative to reference atoms: (reference = -3068.480417)

Kinetic:        +17.619766
Potential:      -22.082462
External:        +0.000000
XC:             -11.330473
Entropy (-ST):   +0.000000
Local:           +0.567734
SIC:             +0.000000
--------------------------
Free energy:    -15.225435
Extrapolated:   -15.225435

 Band  Eigenvalues  Occupancy
    0    -29.19205    2.00000
    1    -14.13769    2.00000
    2    -11.79563    2.00000
    3    -11.79563    2.00000
    4     -9.05419    2.00000
    5     -2.08931    0.00000
    6     -2.08931    0.00000
    7      0.04861    0.00000

Fermi level: -5.57175

Gap: 6.965 eV
Transition (v -> c):
  (s=0, k=0, n=4, [0.00, 0.00, 0.00]) -> (s=0, k=0, n=5, [0.00, 0.00, 0.00])
No difference between direct/indirect transitions

Forces in eV/Ang:
  0 C     0.00000    0.00000   -0.01683
  1 O     0.00000    0.00000   -0.01212

Timing:                                      incl.     excl.
-------------------------------------------------------------------
Density initialized from wave functions:     0.227     0.098   0.0% |
 Symmetrize density:                         0.129     0.129   0.0% |
Forces:                                      0.261     0.261   0.1% |
Hamiltonian:                                 5.299     0.000   0.0% |
 Atomic:                                     0.163     0.002   0.0% |
  XC Correction:                             0.161     0.161   0.0% |
 Calculate atomic Hamiltonians:              0.004     0.004   0.0% |
 Communicate:                                0.000     0.000   0.0% |
 Hartree integrate/restrict:                 0.325     0.325   0.1% |
 Initialize Hamiltonian:                     0.000     0.000   0.0% |
 Poisson:                                    1.581     0.117   0.0% |
  Communicate from 1D:                       0.184     0.184   0.0% |
  Communicate from 2D:                       0.157     0.157   0.0% |
  Communicate to 1D:                         0.332     0.332   0.1% |
  Communicate to 2D:                         0.182     0.182   0.0% |
  FFT 1D:                                    0.188     0.188   0.0% |
  FFT 2D:                                    0.420     0.420   0.1% |
 XC 3D grid:                                 3.183     3.183   0.6% |
 vbar:                                       0.043     0.043   0.0% |
LCAO initialization:                         0.097     0.078   0.0% |
 LCAO eigensolver:                           0.003     0.000   0.0% |
  Calculate projections:                     0.000     0.000   0.0% |
  DenseAtomicCorrection:                     0.000     0.000   0.0% |
  Distribute overlap matrix:                 0.000     0.000   0.0% |
  Orbital Layouts:                           0.000     0.000   0.0% |
  Potential matrix:                          0.003     0.003   0.0% |
 LCAO to grid:                               0.014     0.014   0.0% |
 Set positions (LCAO WFS):                   0.002     0.000   0.0% |
  Basic WFS set positions:                   0.000     0.000   0.0% |
  Basis functions set positions:             0.000     0.000   0.0% |
  P tci:                                     0.001     0.001   0.0% |
  ST tci:                                    0.000     0.000   0.0% |
  mktci:                                     0.001     0.001   0.0% |
Redistribute:                                0.001     0.001   0.0% |
SCF-cycle:                                 121.148     0.043   0.0% |
 Davidson:                                  49.646    29.236   5.7% |-|
  Apply hamiltonian:                         4.471     4.471   0.9% |
  Subspace diag:                             6.612     0.007   0.0% |
   calc_h_matrix:                            4.638     0.484   0.1% |
    Apply hamiltonian:                       4.154     4.154   0.8% |
   diagonalize:                              0.010     0.010   0.0% |
   rotate_psi:                               1.957     1.957   0.4% |
  calc. matrices:                            6.252     2.164   0.4% |
   Apply hamiltonian:                        4.089     4.089   0.8% |
  diagonalize:                               0.017     0.017   0.0% |
  rotate_psi:                                3.058     3.058   0.6% |
 Density:                                   14.804     0.001   0.0% |
  Atomic density matrices:                   0.019     0.019   0.0% |
  Mix:                                      11.303    11.303   2.2% ||
  Multipole moments:                         0.003     0.003   0.0% |
  Pseudo density:                            3.478     0.274   0.1% |
   Symmetrize density:                       3.205     3.205   0.6% |
 Hamiltonian:                               56.421     0.003   0.0% |
  Atomic:                                    2.161     0.066   0.0% |
   XC Correction:                            2.095     2.095   0.4% |
  Calculate atomic Hamiltonians:             0.077     0.077   0.0% |
  Communicate:                               0.000     0.000   0.0% |
  Hartree integrate/restrict:                2.177     2.177   0.4% |
  Poisson:                                  17.180     1.193   0.2% |
   Communicate from 1D:                      2.030     2.030   0.4% |
   Communicate from 2D:                      1.740     1.740   0.3% |
   Communicate to 1D:                        3.519     3.519   0.7% |
   Communicate to 2D:                        2.028     2.028   0.4% |
   FFT 1D:                                   2.070     2.070   0.4% |
   FFT 2D:                                   4.601     4.601   0.9% |
  XC 3D grid:                               33.713    33.713   6.5% |--|
  vbar:                                      1.109     1.109   0.2% |
 Orthonormalize:                             0.233     0.000   0.0% |
  calc_s_matrix:                             0.078     0.078   0.0% |
  inverse-cholesky:                          0.001     0.001   0.0% |
  projections:                               0.002     0.002   0.0% |
  rotate_psi_s:                              0.153     0.153   0.0% |
Set symmetry:                                0.002     0.002   0.0% |
Other:                                     390.087   390.087  75.4% |-----------------------------|
-------------------------------------------------------------------
Total:                                               517.121 100.0%

Date: Mon Mar  2 06:43:35 2026
