
  ___ ___ ___ _ _ _  
 |   |   |_  | | | | 
 | | | | | . | | | | 
 |__ |  _|___|_____|  25.7.0
 |___|_|             

User:   coder@vm-rockland-6674d4f778-lf4ct
Date:   Mon Mar  2 07:06:45 2026
Arch:   x86_64
Pid:    729663
CWD:    /home/coder/project_dft_tests
Python: 3.12.3
gpaw:   /home/coder/dft_env/lib/python3.12/site-packages/gpaw
_gpaw:  /home/coder/dft_env/lib/python3.12/site-packages/
        _gpaw.cpython-312-x86_64-linux-gnu.so
ase:    /home/coder/dft_env/lib/python3.12/site-packages/ase (version 3.27.0)
numpy:  /home/coder/dft_env/lib/python3.12/site-packages/numpy (version 2.4.2)
scipy:  /home/coder/dft_env/lib/python3.12/site-packages/scipy (version 1.17.1)
libxc:  2.x.y
units:  Angstrom and eV
cores: 1
OpenMP: False
OMP_NUM_THREADS: 1

Input parameters:
  convergence: {energy: 1e-05}
  h: 0.18
  mode: fd
  xc: PBE

System changes: positions, numbers, cell, pbc, initial_charges, initial_magmoms 

Initialize ...

species:
  C:
    name: Carbon
    id: 4aa54d4b901d75f77cc0ea3eec22967b
    Z: 6.0
    valence: 4
    core: 2
    charge: 0.0
    file: /home/coder/dft_env/lib/python3.12/site-packages/gpaw_data/setups/C.PBE.gz
    compensation charges: {type: gauss,
                           rc: 0.20,
                           lmax: 2}
    cutoffs: {filter: 1.14,
              core: 1.14}
    projectors:
      #              energy  rcut
      - 2s(2.00)   -13.751   0.635
      - 2p(2.00)    -5.284   0.635
      -  s          13.461   0.635
      -  p          21.927   0.635
      -  d           0.000   0.635
  
    # Using partial waves for C as LCAO basis

  O:
    name: Oxygen
    id: 32ecd46bf208036f09c70b0ec9a88b78
    Z: 8.0
    valence: 6
    core: 2
    charge: 0.0
    file: /home/coder/dft_env/lib/python3.12/site-packages/gpaw_data/setups/O.PBE.gz
    compensation charges: {type: gauss,
                           rc: 0.21,
                           lmax: 2}
    cutoffs: {filter: 1.17,
              core: 0.83}
    projectors:
      #              energy  rcut
      - 2s(2.00)   -23.961   0.688
      - 2p(4.00)    -9.029   0.598
      -  s           3.251   0.688
      -  p          18.182   0.598
      -  d           0.000   0.619
  
    # Using partial waves for O as LCAO basis

Reference energy: -3068.480417  # eV

Spin-paired calculation

Convergence criteria:
 Maximum [total energy] change in last 3 cyles: 1e-05 eV / valence electron
 Maximum integral of absolute [dens]ity change: 0.0001 electrons / valence electron
 Maximum integral of absolute [eigenst]ate change: 4e-08 eV^2 / valence electron
 Maximum number of scf [iter]ations: 333
 (Square brackets indicate name in SCF output, whereas a 'c' in
 the SCF output indicates the quantity has converged.)

Symmetries present (total): 8

  ( 1  0  0)  ( 1  0  0)  ( 0  1  0)  ( 0  1  0)  ( 0 -1  0)  ( 0 -1  0)
  ( 0  1  0)  ( 0 -1  0)  ( 1  0  0)  (-1  0  0)  ( 1  0  0)  (-1  0  0)
  ( 0  0  1)  ( 0  0  1)  ( 0  0  1)  ( 0  0  1)  ( 0  0  1)  ( 0  0  1)

  (-1  0  0)  (-1  0  0)
  ( 0  1  0)  ( 0 -1  0)
  ( 0  0  1)  ( 0  0  1)

1 k-point (Gamma)
1 k-point in the irreducible part of the Brillouin zone
       k-points in crystal coordinates                weights
   0:     0.00000000    0.00000000    0.00000000          1/1

Wave functions: Uniform real-space grid
  Kinetic energy operator: 6*3+1=19 point O(h^6) finite-difference Laplacian
  ScaLapack parameters: grid=1x1, blocksize=None
  Wavefunction extrapolation:
    Improved wavefunction reuse through dual PAW basis 

Occupation numbers: # Zero width 

Eigensolver
   Davidson(niter=2) 

Densities:
  Coarse grid: 76*76*84 grid
  Fine grid: 152*152*168 grid
  Total Charge: 0.000000 

Density mixing:
  Method: separate
  Backend: pulay
  Linear mixing parameter: 0.25
  old densities: 3
  Damping of long wavelength oscillations: 1  # (no daming) 

Hamiltonian:
  XC and Coulomb potentials evaluated on a 152*152*168 grid
  Using the PBE Exchange-Correlation functional
  Interpolation: tri-quintic (5. degree polynomial)
  Poisson solver: FastPoissonSolver using
    Stencil: 6*3+1=19 point O(h^6) finite-difference Laplacian
    FFT axes: []
    FST axes: [np.int64(0), np.int64(1), np.int64(2)]
 

XC parameters: PBE with 2 nearest neighbor stencil

Memory estimate:
  Process memory now: 590.45 MiB
  Calculator: 254.22 MiB
    Density: 117.41 MiB
      Arrays: 94.28 MiB
      Localized functions: 1.76 MiB
      Mixer: 21.37 MiB
    Hamiltonian: 61.79 MiB
      Arrays: 61.66 MiB
      XC: 0.00 MiB
      Poisson: 0.00 MiB
      vbar: 0.13 MiB
    Wavefunctions: 75.02 MiB
      Arrays psit_nG: 28.50 MiB
      Eigensolver: 46.31 MiB
      Projections: 0.00 MiB
      Projectors: 0.21 MiB

Total number of cores used: 1

Number of atoms: 2
Number of atomic orbitals: 8
Number of bands in calculation: 8
Number of valence electrons: 10
Bands to converge: occupied

... initialized

Initializing position-dependent things.

Density initialized from atomic densities
Creating initial wave functions:
  8 bands from LCAO basis set

          .---------------------------------.  
         /|                                 |  
        / |                                 |  
       /  |                                 |  
      /   |                                 |  
     /    |                                 |  
    /     |                                 |  
   /      |                                 |  
  /       |                                 |  
 *        |                                 |  
 |        |                                 |  
 |        |                                 |  
 |        |                                 |  
 |        |            O                    |  
 |        |                                 |  
 |        |            C                    |  
 |        |                                 |  
 |        |                                 |  
 |        |                                 |  
 |        .---------------------------------.  
 |       /                                 /   
 |      /                                 /    
 |     /                                 /     
 |    /                                 /      
 |   /                                 /       
 |  /                                 /        
 | /                                 /         
 |/                                 /          
 *---------------------------------*           

Atomic positions and initial magnetic moments

Positions:
   0 C      7.000000    7.000000    7.000000    ( 0.0000,  0.0000,  0.0000)
   1 O      7.000000    7.000000    8.136536    ( 0.0000,  0.0000,  0.0000)

Unit cell:
           periodic     x           y           z      points  spacing
  1. axis:    no    14.000000    0.000000    0.000000    76     0.1842
  2. axis:    no     0.000000   14.000000    0.000000    76     0.1842
  3. axis:    no     0.000000    0.000000   15.136536    84     0.1802

  Lengths:  14.000000  14.000000  15.136536
  Angles:   90.000000  90.000000  90.000000

Effective grid spacing dv^(1/3) = 0.1829

     iter     time        total  log10-change:
                         energy   eigst   dens
iter:   1 07:06:52   -15.845978
iter:   2 07:06:55   -15.465605   +0.46  -0.90
iter:   3 07:06:57   -15.293941   -0.15  -1.10
iter:   4 07:07:00   -15.238823   -0.24  -1.31
iter:   5 07:07:03   -15.225918   -1.13  -1.75
iter:   6 07:07:05   -15.225605   -1.59  -2.19
iter:   7 07:07:08   -15.225517   -2.77  -2.76
iter:   8 07:07:10   -15.225534c  -2.94  -2.92
iter:   9 07:07:13   -15.225507c  -3.24  -3.09
iter:  10 07:07:16   -15.225499c  -4.13  -3.24
iter:  11 07:07:19   -15.225500c  -4.48  -3.72
iter:  12 07:07:22   -15.225500c  -5.07  -3.90
iter:  13 07:07:25   -15.225499c  -5.39  -4.05c
iter:  14 07:07:27   -15.225499c  -5.87  -4.94c
iter:  15 07:07:30   -15.225499c  -6.39  -5.13c
iter:  16 07:07:32   -15.225499c  -6.90  -5.18c
iter:  17 07:07:35   -15.225499c  -7.32  -5.30c
iter:  18 07:07:38   -15.225499c  -7.77c -5.52c

Converged after 18 iterations.

Dipole moment: (-0.000000, -0.000000, 0.041983) |e|*Ang

Energy contributions relative to reference atoms: (reference = -3068.480417)

Kinetic:        +17.620558
Potential:      -22.083459
External:        +0.000000
XC:             -11.330570
Entropy (-ST):   +0.000000
Local:           +0.567972
SIC:             +0.000000
--------------------------
Free energy:    -15.225499
Extrapolated:   -15.225499

 Band  Eigenvalues  Occupancy
    0    -29.19197    2.00000
    1    -14.13768    2.00000
    2    -11.79557    2.00000
    3    -11.79557    2.00000
    4     -9.05416    2.00000
    5     -2.08926    0.00000
    6     -2.08926    0.00000
    7      0.18502    0.00000

Fermi level: -5.57171

Gap: 6.965 eV
Transition (v -> c):
  (s=0, k=0, n=4, [0.00, 0.00, 0.00]) -> (s=0, k=0, n=5, [0.00, 0.00, 0.00])
No difference between direct/indirect transitions
Writing to runs/CO/final.gpw (mode='')

Timing:                              incl.     excl.
-----------------------------------------------------------
Hamiltonian:                         1.376     0.000   0.0% |
 Atomic:                             0.076     0.000   0.0% |
  XC Correction:                     0.075     0.075   0.1% |
 Calculate atomic Hamiltonians:      0.001     0.001   0.0% |
 Communicate:                        0.000     0.000   0.0% |
 Hartree integrate/restrict:         0.111     0.111   0.2% |
 Initialize Hamiltonian:             0.000     0.000   0.0% |
 Poisson:                            0.399     0.031   0.1% |
  Communicate from 1D:               0.048     0.048   0.1% |
  Communicate from 2D:               0.040     0.040   0.1% |
  Communicate to 1D:                 0.082     0.082   0.2% |
  Communicate to 2D:                 0.047     0.047   0.1% |
  FFT 1D:                            0.047     0.047   0.1% |
  FFT 2D:                            0.105     0.105   0.2% |
 XC 3D grid:                         0.770     0.770   1.4% ||
 vbar:                               0.021     0.021   0.0% |
LCAO initialization:                 0.034     0.020   0.0% |
 LCAO eigensolver:                   0.003     0.000   0.0% |
  Calculate projections:             0.000     0.000   0.0% |
  DenseAtomicCorrection:             0.000     0.000   0.0% |
  Distribute overlap matrix:         0.000     0.000   0.0% |
  Orbital Layouts:                   0.000     0.000   0.0% |
  Potential matrix:                  0.003     0.003   0.0% |
 LCAO to grid:                       0.009     0.009   0.0% |
 Set positions (LCAO WFS):           0.002     0.000   0.0% |
  Basic WFS set positions:           0.000     0.000   0.0% |
  Basis functions set positions:     0.000     0.000   0.0% |
  P tci:                             0.001     0.001   0.0% |
  ST tci:                            0.000     0.000   0.0% |
  mktci:                             0.001     0.001   0.0% |
SCF-cycle:                          47.114     0.012   0.0% |
 Davidson:                          19.303    11.827  22.2% |--------|
  Apply hamiltonian:                 1.653     1.653   3.1% ||
  Subspace diag:                     2.242     0.001   0.0% |
   calc_h_matrix:                    1.498     0.167   0.3% |
    Apply hamiltonian:               1.331     1.331   2.5% ||
   diagonalize:                      0.004     0.004   0.0% |
   rotate_psi:                       0.739     0.739   1.4% ||
  calc. matrices:                    2.376     0.831   1.6% ||
   Apply hamiltonian:                1.545     1.545   2.9% ||
  diagonalize:                       0.006     0.006   0.0% |
  rotate_psi:                        1.198     1.198   2.3% ||
 Density:                            5.524     0.000   0.0% |
  Atomic density matrices:           0.007     0.007   0.0% |
  Mix:                               4.273     4.273   8.0% |--|
  Multipole moments:                 0.001     0.001   0.0% |
  Pseudo density:                    1.242     0.080   0.1% |
   Symmetrize density:               1.162     1.162   2.2% ||
 Hamiltonian:                       22.226     0.001   0.0% |
  Atomic:                            1.038     0.059   0.1% |
   XC Correction:                    0.978     0.978   1.8% ||
  Calculate atomic Hamiltonians:     0.018     0.018   0.0% |
  Communicate:                       0.000     0.000   0.0% |
  Hartree integrate/restrict:        0.833     0.833   1.6% ||
  Poisson:                           6.666     0.420   0.8% |
   Communicate from 1D:              0.794     0.794   1.5% ||
   Communicate from 2D:              0.682     0.682   1.3% ||
   Communicate to 1D:                1.368     1.368   2.6% ||
   Communicate to 2D:                0.787     0.787   1.5% ||
   FFT 1D:                           0.808     0.808   1.5% ||
   FFT 2D:                           1.807     1.807   3.4% ||
  XC 3D grid:                       13.112    13.112  24.6% |---------|
  vbar:                              0.559     0.559   1.0% |
 Orthonormalize:                     0.050     0.000   0.0% |
  calc_s_matrix:                     0.003     0.003   0.0% |
  inverse-cholesky:                  0.000     0.000   0.0% |
  projections:                       0.000     0.000   0.0% |
  rotate_psi_s:                      0.046     0.046   0.1% |
Set symmetry:                        0.002     0.002   0.0% |
Other:                               4.708     4.708   8.8% |---|
-----------------------------------------------------------
Total:                                        53.235 100.0%

Memory usage: 692.50 MiB
Date: Mon Mar  2 07:07:38 2026
