3
Lattice="14.96 0.0 0.0 0.0 14.93 0.0 0.0 0.0 14.0" Properties=species:S:1:pos:R:3:magmoms:R:1:forces:R:3 energy=-14.56539258353521 free_energy=-14.565392583535422 dipole="0.2975590354037693 0.22988177438782803 7.469419409275273e-11" magmom=0.0 pbc="T T T"
O        7.07864583       7.06239779       7.00000000       0.00000000      -0.00112298      -0.00448930       0.00000000
H        8.01933545       6.82183902       7.00000000       0.00000000      -0.00735301      -0.00305686       0.00000000
H        7.08299155       8.03302833       7.00000000       0.00000000       0.00207443       0.00616296       0.00000000
