3
Lattice="15.2 0.0 0.0 0.0 14.93 0.0 0.0 0.0 14.0" Properties=species:S:1:pos:R:3:magmoms:R:1:forces:R:3 energy=-14.567095157964038 free_energy=-14.567095157964038 dipole="0.2328817811517122 0.2956548256621475 -3.0179467135851676e-15" magmom=0.0 pbc="F F F"
O        7.23207273       7.00801829       7.00000000       0.00000000       0.00084492       0.00560942       0.00000000
H        8.20300308       7.00359069       7.00000000       0.00000000      -0.00565573      -0.00361337       0.00000000
H        7.00035867       7.95102495       7.00000000       0.00000000       0.00350320      -0.00599915       0.00000000
