
  ___ ___ ___ _ _ _  
 |   |   |_  | | | | 
 | | | | | . | | | | 
 |__ |  _|___|_____|  25.7.0
 |___|_|             

User:   coder@vm-rockland-6674d4f778-lf4ct
Date:   Mon Mar  2 06:37:09 2026
Arch:   x86_64
Pid:    680339
CWD:    /home/coder/project_dft_tests
Python: 3.12.3
gpaw:   /home/coder/dft_env/lib/python3.12/site-packages/gpaw
_gpaw:  /home/coder/dft_env/lib/python3.12/site-packages/
        _gpaw.cpython-312-x86_64-linux-gnu.so
ase:    /home/coder/dft_env/lib/python3.12/site-packages/ase (version 3.27.0)
numpy:  /home/coder/dft_env/lib/python3.12/site-packages/numpy (version 2.4.2)
scipy:  /home/coder/dft_env/lib/python3.12/site-packages/scipy (version 1.17.1)
libxc:  2.x.y
units:  Angstrom and eV
cores: 1
OpenMP: False
OMP_NUM_THREADS: 1

Input parameters:
  convergence: {energy: 1e-05}
  h: 0.18
  mode: fd
  xc: PBE

System changes: positions, numbers, cell, pbc, initial_charges, initial_magmoms 

Initialize ...

species:
  O:
    name: Oxygen
    id: 32ecd46bf208036f09c70b0ec9a88b78
    Z: 8.0
    valence: 6
    core: 2
    charge: 0.0
    file: /home/coder/dft_env/lib/python3.12/site-packages/gpaw_data/setups/O.PBE.gz
    compensation charges: {type: gauss,
                           rc: 0.21,
                           lmax: 2}
    cutoffs: {filter: 1.17,
              core: 0.83}
    projectors:
      #              energy  rcut
      - 2s(2.00)   -23.961   0.688
      - 2p(4.00)    -9.029   0.598
      -  s           3.251   0.688
      -  p          18.182   0.598
      -  d           0.000   0.619
  
    # Using partial waves for O as LCAO basis

  H:
    name: Hydrogen
    id: d65de229564ff8ea4db303e23b6d1ecf
    Z: 1.0
    valence: 1
    core: 0
    charge: 0.0
    file: /home/coder/dft_env/lib/python3.12/site-packages/gpaw_data/setups/H.PBE.gz
    compensation charges: {type: gauss,
                           rc: 0.15,
                           lmax: 2}
    cutoffs: {filter: 0.85,
              core: 0.53}
    projectors:
      #              energy  rcut
      - 1s(1.00)    -6.494   0.476
      -  s          20.717   0.476
      -  p           0.000   0.476
  
    # Using partial waves for H as LCAO basis

Reference energy: -2065.832626  # eV

Spin-paired calculation

Convergence criteria:
 Maximum [total energy] change in last 3 cyles: 1e-05 eV / valence electron
 Maximum integral of absolute [dens]ity change: 0.0001 electrons / valence electron
 Maximum integral of absolute [eigenst]ate change: 4e-08 eV^2 / valence electron
 Maximum number of scf [iter]ations: 333
 (Square brackets indicate name in SCF output, whereas a 'c' in
 the SCF output indicates the quantity has converged.)

Symmetries present (total): 2

  ( 1  0  0)  ( 1  0  0)
  ( 0  1  0)  ( 0  1  0)
  ( 0  0  1)  ( 0  0 -1)

1 k-point (Gamma)
1 k-point in the irreducible part of the Brillouin zone
       k-points in crystal coordinates                weights
   0:     0.00000000    0.00000000    0.00000000          1/1

Wave functions: Uniform real-space grid
  Kinetic energy operator: 6*3+1=19 point O(h^6) finite-difference Laplacian
  ScaLapack parameters: grid=1x1, blocksize=None
  Wavefunction extrapolation:
    Improved wavefunction reuse through dual PAW basis 

Occupation numbers: # Zero width 

Eigensolver
   Davidson(niter=2) 

Densities:
  Coarse grid: 84*84*76 grid
  Fine grid: 168*168*152 grid
  Total Charge: 0.000000 

Density mixing:
  Method: separate
  Backend: pulay
  Linear mixing parameter: 0.25
  old densities: 3
  Damping of long wavelength oscillations: 1  # (no daming) 

Hamiltonian:
  XC and Coulomb potentials evaluated on a 168*168*152 grid
  Using the PBE Exchange-Correlation functional
  Interpolation: tri-quintic (5. degree polynomial)
  Poisson solver: FastPoissonSolver using
    Stencil: 6*3+1=19 point O(h^6) finite-difference Laplacian
    FFT axes: []
    FST axes: [np.int64(2), np.int64(0), np.int64(1)]
 

XC parameters: PBE with 2 nearest neighbor stencil

Memory estimate:
  Process memory now: 1199.95 MiB
  Calculator: 265.09 MiB
    Density: 129.61 MiB
      Arrays: 104.27 MiB
      Localized functions: 1.69 MiB
      Mixer: 23.65 MiB
    Hamiltonian: 68.32 MiB
      Arrays: 68.20 MiB
      XC: 0.00 MiB
      Poisson: 0.00 MiB
      vbar: 0.12 MiB
    Wavefunctions: 67.16 MiB
      Arrays psit_nG: 23.65 MiB
      Eigensolver: 43.36 MiB
      Projections: 0.00 MiB
      Projectors: 0.14 MiB

Total number of cores used: 1

Number of atoms: 3
Number of atomic orbitals: 6
Number of bands in calculation: 6
Number of valence electrons: 8
Bands to converge: occupied

... initialized

Initializing position-dependent things.

Density initialized from atomic densities
Creating initial wave functions:
  6 bands from LCAO basis set

          .------------------------------------.  
         /|                                    |  
        / |                                    |  
       /  |                                    |  
      /   |                                    |  
     /    |                                    |  
    /     |                                    |  
   /      |                                    |  
  /       |                                    |  
 *        |                                    |  
 |        |                                    |  
 |        |                                    |  
 |        |                                    |  
 |        |            O H                     |  
 |        |                                    |  
 |        |                                    |  
 |        |                                    |  
 |        .------------------------------------.  
 |       /                                    /   
 |      /                                    /    
 |     /                                    /     
 |    /                                    /      
 |   /                                    /       
 |  /                                    /        
 | /                                    /         
 |/                                    /          
 *------------------------------------*           

Atomic positions and initial magnetic moments

Positions:
   0 O      7.240000    7.000000    7.000000    ( 0.0000,  0.0000,  0.0000)
   1 H      8.200000    7.000000    7.000000    ( 0.0000,  0.0000,  0.0000)
   2 H      7.000000    7.930000    7.000000    ( 0.0000,  0.0000,  0.0000)

Unit cell:
           periodic     x           y           z      points  spacing
  1. axis:    no    15.200000    0.000000    0.000000    84     0.1810
  2. axis:    no     0.000000   14.930000    0.000000    84     0.1777
  3. axis:    no     0.000000    0.000000   14.000000    76     0.1842

  Lengths:  15.200000  14.930000  14.000000
  Angles:   90.000000  90.000000  90.000000

Effective grid spacing dv^(1/3) = 0.1809

     iter     time        total  log10-change:
                         energy   eigst   dens
iter:   1 06:37:17   -16.474085
iter:   2 06:37:20   -14.810673   +0.65  -0.71
iter:   3 06:37:23   -14.605743   +0.56  -0.96
iter:   4 06:37:26   -14.571924   -0.67  -1.16
iter:   5 06:37:29   -14.561275   -0.95  -1.74
iter:   6 06:37:32   -14.561250   -1.58  -2.37
iter:   7 06:37:35   -14.561267c  -2.74  -2.51
iter:   8 06:37:38   -14.561520   -2.56  -2.58
iter:   9 06:37:40   -14.561314   -3.17  -2.71
iter:  10 06:37:43   -14.561386   -2.92  -3.00
iter:  11 06:37:46   -14.561276   -2.83  -2.87
iter:  12 06:37:49   -14.561282   -3.33  -3.71
iter:  13 06:37:52   -14.561281c  -5.07  -3.84
iter:  14 06:37:55   -14.561281c  -5.11  -4.16c
iter:  15 06:37:57   -14.561281c  -5.27  -4.14c
iter:  16 06:38:00   -14.561281c  -5.10  -4.02c
iter:  17 06:38:03   -14.561281c  -5.52  -4.90c
iter:  18 06:38:06   -14.561281c  -7.01  -4.84c
iter:  19 06:38:09   -14.561281c  -7.57c -5.45c

Converged after 19 iterations.

Dipole moment: (0.229224, 0.295998, -0.000000) |e|*Ang

Energy contributions relative to reference atoms: (reference = -2065.832626)

Kinetic:        +17.156304
Potential:      -19.338341
External:        +0.000000
XC:             -12.874737
Entropy (-ST):   +0.000000
Local:           +0.495493
SIC:             +0.000000
--------------------------
Free energy:    -14.561281
Extrapolated:   -14.561281

 Band  Eigenvalues  Occupancy
    0    -25.34008    2.00000
    1    -13.18473    2.00000
    2     -9.34067    2.00000
    3     -7.26234    2.00000
    4     -0.93582    0.00000
    5      0.43750    0.00000

Fermi level: -4.09908

Gap: 6.327 eV
Transition (v -> c):
  (s=0, k=0, n=3, [0.00, 0.00, 0.00]) -> (s=0, k=0, n=4, [0.00, 0.00, 0.00])
No difference between direct/indirect transitions

Forces in eV/Ang:
  0 O    -0.41012   -0.44050    0.00000
  1 H     0.54470   -0.00554    0.00000
  2 H    -0.13537    0.50234    0.00000

System changes: positions 

Initializing position-dependent things.

Density initialized from wave functions
          .------------------------------------.  
         /|                                    |  
        / |                                    |  
       /  |                                    |  
      /   |                                    |  
     /    |                                    |  
    /     |                                    |  
   /      |                                    |  
  /       |                                    |  
 *        |                                    |  
 |        |                                    |  
 |        |                                    |  
 |        |                                    |  
 |        |            O H                     |  
 |        |                                    |  
 |        |                                    |  
 |        |                                    |  
 |        .------------------------------------.  
 |       /                                    /   
 |      /                                    /    
 |     /                                    /     
 |    /                                    /      
 |   /                                    /       
 |  /                                    /        
 | /                                    /         
 |/                                    /          
 *------------------------------------*           

Atomic positions and initial magnetic moments

Positions:
   0 O      7.234141    6.993707    7.000000    ( 0.0000,  0.0000,  0.0000)
   1 H      8.207781    6.999921    7.000000    ( 0.0000,  0.0000,  0.0000)
   2 H      6.998066    7.937176    7.000000    ( 0.0000,  0.0000,  0.0000)

Unit cell:
           periodic     x           y           z      points  spacing
  1. axis:    no    15.200000    0.000000    0.000000    84     0.1810
  2. axis:    no     0.000000   14.930000    0.000000    84     0.1777
  3. axis:    no     0.000000    0.000000   14.000000    76     0.1842

  Lengths:  15.200000  14.930000  14.000000
  Angles:   90.000000  90.000000  90.000000

Effective grid spacing dv^(1/3) = 0.1809

     iter     time        total  log10-change:
                         energy   eigst   dens
iter:   1 06:38:12   -14.567897   -1.34
iter:   2 06:38:14   -14.566661   -2.26  -2.31
iter:   3 06:38:17   -14.566413   -1.82  -2.49
iter:   4 06:38:20   -14.566198   -2.92  -2.72
iter:   5 06:38:23   -14.566491   -2.51  -2.89
iter:   6 06:38:26   -14.566172   -2.23  -2.67
iter:   7 06:38:28   -14.566174   -3.47  -3.48
iter:   8 06:38:31   -14.566170c  -3.91  -3.59
iter:   9 06:38:34   -14.566170c  -5.49  -3.88
iter:  10 06:38:37   -14.566171c  -4.39  -3.95
iter:  11 06:38:40   -14.566169c  -5.19  -3.82
iter:  12 06:38:43   -14.566169c  -5.04  -4.08c
iter:  13 06:38:46   -14.566169c  -5.32  -4.40c
iter:  14 06:38:49   -14.566169c  -6.89  -4.41c
iter:  15 06:38:52   -14.566169c  -6.19  -4.52c
iter:  16 06:38:55   -14.566169c  -6.93  -4.88c
iter:  17 06:38:58   -14.566169c  -6.56  -5.32c
iter:  18 06:39:00   -14.566169c  -6.75  -4.96c
iter:  19 06:39:04   -14.566169c  -7.35  -5.06c
iter:  20 06:39:06   -14.566169c  -7.41c -5.54c

Converged after 20 iterations.

Dipole moment: (0.231575, 0.298356, -0.000000) |e|*Ang

Energy contributions relative to reference atoms: (reference = -2065.832626)

Kinetic:        +15.930111
Potential:      -18.443354
External:        +0.000000
XC:             -12.547738
Entropy (-ST):   +0.000000
Local:           +0.494811
SIC:             +0.000000
--------------------------
Free energy:    -14.566169
Extrapolated:   -14.566169

 Band  Eigenvalues  Occupancy
    0    -25.20962    2.00000
    1    -13.02746    2.00000
    2     -9.35951    2.00000
    3     -7.23859    2.00000
    4     -0.97697    0.00000
    5      0.39818    0.00000

Fermi level: -4.10778

Gap: 6.262 eV
Transition (v -> c):
  (s=0, k=0, n=3, [0.00, 0.00, 0.00]) -> (s=0, k=0, n=4, [0.00, 0.00, 0.00])
No difference between direct/indirect transitions

Forces in eV/Ang:
  0 O     0.11525    0.14997    0.00000
  1 H    -0.13127   -0.02655    0.00000
  2 H    -0.00399   -0.07568    0.00000

System changes: positions 

Initializing position-dependent things.

Density initialized from wave functions
          .------------------------------------.  
         /|                                    |  
        / |                                    |  
       /  |                                    |  
      /   |                                    |  
     /    |                                    |  
    /     |                                    |  
   /      |                                    |  
  /       |                                    |  
 *        |                                    |  
 |        |                                    |  
 |        |                                    |  
 |        |                                    |  
 |        |            O H                     |  
 |        |                                    |  
 |        |                                    |  
 |        |                                    |  
 |        .------------------------------------.  
 |       /                                    /   
 |      /                                    /    
 |     /                                    /     
 |    /                                    /      
 |   /                                    /       
 |  /                                    /        
 | /                                    /         
 |/                                    /          
 *------------------------------------*           

Atomic positions and initial magnetic moments

Positions:
   0 O      7.235444    6.995408    7.000000    ( 0.0000,  0.0000,  0.0000)
   1 H      8.206303    6.999614    7.000000    ( 0.0000,  0.0000,  0.0000)
   2 H      6.998012    7.936336    7.000000    ( 0.0000,  0.0000,  0.0000)

Unit cell:
           periodic     x           y           z      points  spacing
  1. axis:    no    15.200000    0.000000    0.000000    84     0.1810
  2. axis:    no     0.000000   14.930000    0.000000    84     0.1777
  3. axis:    no     0.000000    0.000000   14.000000    76     0.1842

  Lengths:  15.200000  14.930000  14.000000
  Angles:   90.000000  90.000000  90.000000

Effective grid spacing dv^(1/3) = 0.1809

     iter     time        total  log10-change:
                         energy   eigst   dens
iter:   1 06:39:09   -14.566621   -2.74
iter:   2 06:39:12   -14.566565   -3.58  -2.98
iter:   3 06:39:15   -14.566555c  -3.20  -3.18
iter:   4 06:39:18   -14.566548c  -3.84  -3.42
iter:   5 06:39:21   -14.566550c  -4.07  -3.65
iter:   6 06:39:24   -14.566547c  -4.55  -3.65
iter:   7 06:39:27   -14.566547c  -5.70  -4.41c
iter:   8 06:39:29   -14.566547c  -5.79  -4.55c
iter:   9 06:39:32   -14.566547c  -7.46c -4.68c

Converged after 9 iterations.

Dipole moment: (0.230967, 0.297715, -0.000000) |e|*Ang

Energy contributions relative to reference atoms: (reference = -2065.832626)

Kinetic:        +16.152425
Potential:      -18.605537
External:        +0.000000
XC:             -12.608872
Entropy (-ST):   +0.000000
Local:           +0.495437
SIC:             +0.000000
--------------------------
Free energy:    -14.566547
Extrapolated:   -14.566547

 Band  Eigenvalues  Occupancy
    0    -25.23301    2.00000
    1    -13.06135    2.00000
    2     -9.35200    2.00000
    3     -7.24286    2.00000
    4     -0.96885    0.00000
    5      0.40140    0.00000

Fermi level: -4.10586

Gap: 6.274 eV
Transition (v -> c):
  (s=0, k=0, n=3, [0.00, 0.00, 0.00]) -> (s=0, k=0, n=4, [0.00, 0.00, 0.00])
No difference between direct/indirect transitions

Forces in eV/Ang:
  0 O     0.00684    0.05143    0.00000
  1 H     0.00010   -0.01504    0.00000
  2 H    -0.01887    0.02159    0.00000

System changes: positions 

Initializing position-dependent things.

Density initialized from wave functions
          .------------------------------------.  
         /|                                    |  
        / |                                    |  
       /  |                                    |  
      /   |                                    |  
     /    |                                    |  
    /     |                                    |  
   /      |                                    |  
  /       |                                    |  
 *        |                                    |  
 |        |                                    |  
 |        |                                    |  
 |        |                                    |  
 |        |            O H                     |  
 |        |                                    |  
 |        |                                    |  
 |        |                                    |  
 |        .------------------------------------.  
 |       /                                    /   
 |      /                                    /    
 |     /                                    /     
 |    /                                    /      
 |   /                                    /       
 |  /                                    /        
 | /                                    /         
 |/                                    /          
 *------------------------------------*           

Atomic positions and initial magnetic moments

Positions:
   0 O      7.235615    6.996331    7.000000    ( 0.0000,  0.0000,  0.0000)
   1 H      8.206242    6.999349    7.000000    ( 0.0000,  0.0000,  0.0000)
   2 H      6.997691    7.936665    7.000000    ( 0.0000,  0.0000,  0.0000)

Unit cell:
           periodic     x           y           z      points  spacing
  1. axis:    no    15.200000    0.000000    0.000000    84     0.1810
  2. axis:    no     0.000000   14.930000    0.000000    84     0.1777
  3. axis:    no     0.000000    0.000000   14.000000    76     0.1842

  Lengths:  15.200000  14.930000  14.000000
  Angles:   90.000000  90.000000  90.000000

Effective grid spacing dv^(1/3) = 0.1809

     iter     time        total  log10-change:
                         energy   eigst   dens
iter:   1 06:39:35   -14.566603   -3.64
iter:   2 06:39:38   -14.566601   -4.51  -3.63
iter:   3 06:39:40   -14.566601c  -4.30  -3.80
iter:   4 06:39:43   -14.566601c  -5.19  -4.04c
iter:   5 06:39:46   -14.566601c  -5.44  -4.20c
iter:   6 06:39:49   -14.566601c  -5.84  -4.32c
iter:   7 06:39:52   -14.566601c  -7.05  -4.93c
iter:   8 06:39:55   -14.566601c  -6.67  -5.12c
iter:   9 06:39:58   -14.566601c  -6.85  -5.00c
iter:  10 06:40:00   -14.566601c  -7.53c -5.16c

Converged after 10 iterations.

Dipole moment: (0.230876, 0.297356, 0.000000) |e|*Ang

Energy contributions relative to reference atoms: (reference = -2065.832626)

Kinetic:        +16.183405
Potential:      -18.627532
External:        +0.000000
XC:             -12.617637
Entropy (-ST):   +0.000000
Local:           +0.495164
SIC:             +0.000000
--------------------------
Free energy:    -14.566601
Extrapolated:   -14.566601

 Band  Eigenvalues  Occupancy
    0    -25.23466    2.00000
    1    -13.06946    2.00000
    2     -9.34697    2.00000
    3     -7.24282    2.00000
    4     -0.96747    0.00000
    5      0.40157    0.00000

Fermi level: -4.10514

Gap: 6.275 eV
Transition (v -> c):
  (s=0, k=0, n=3, [0.00, 0.00, 0.00]) -> (s=0, k=0, n=4, [0.00, 0.00, 0.00])
No difference between direct/indirect transitions

Forces in eV/Ang:
  0 O    -0.00302    0.02489    0.00000
  1 H     0.00866   -0.00765    0.00000
  2 H    -0.01654    0.04205    0.00000

System changes: positions 

Initializing position-dependent things.

Density initialized from wave functions
          .------------------------------------.  
         /|                                    |  
        / |                                    |  
       /  |                                    |  
      /   |                                    |  
     /    |                                    |  
    /     |                                    |  
   /      |                                    |  
  /       |                                    |  
 *        |                                    |  
 |        |                                    |  
 |        |                                    |  
 |        |                                    |  
 |        |            O H                     |  
 |        |                                    |  
 |        |                                    |  
 |        |                                    |  
 |        .------------------------------------.  
 |       /                                    /   
 |      /                                    /    
 |     /                                    /     
 |    /                                    /      
 |   /                                    /       
 |  /                                    /        
 | /                                    /         
 |/                                    /          
 *------------------------------------*           

Atomic positions and initial magnetic moments

Positions:
   0 O      7.236011    6.999084    7.000000    ( 0.0000,  0.0000,  0.0000)
   1 H      8.206215    6.998564    7.000000    ( 0.0000,  0.0000,  0.0000)
   2 H      6.996504    7.938748    7.000000    ( 0.0000,  0.0000,  0.0000)

Unit cell:
           periodic     x           y           z      points  spacing
  1. axis:    no    15.200000    0.000000    0.000000    84     0.1810
  2. axis:    no     0.000000   14.930000    0.000000    84     0.1777
  3. axis:    no     0.000000    0.000000   14.000000    76     0.1842

  Lengths:  15.200000  14.930000  14.000000
  Angles:   90.000000  90.000000  90.000000

Effective grid spacing dv^(1/3) = 0.1809

     iter     time        total  log10-change:
                         energy   eigst   dens
iter:   1 06:40:03   -14.566726   -2.70
iter:   2 06:40:06   -14.566718   -3.54  -3.19
iter:   3 06:40:09   -14.566719c  -3.42  -3.35
iter:   4 06:40:12   -14.566716c  -4.45  -3.60
iter:   5 06:40:15   -14.566717c  -4.54  -3.78
iter:   6 06:40:17   -14.566716c  -4.91  -3.90
iter:   7 06:40:20   -14.566716c  -6.00  -4.38c
iter:   8 06:40:23   -14.566716c  -5.70  -4.69c
iter:   9 06:40:26   -14.566716c  -5.91  -4.52c
iter:  10 06:40:29   -14.566716c  -6.75  -4.70c
iter:  11 06:40:32   -14.566716c  -6.77  -5.18c
iter:  12 06:40:34   -14.566716c  -8.25c -5.54c

Converged after 12 iterations.

Dipole moment: (0.230545, 0.296393, -0.000000) |e|*Ang

Energy contributions relative to reference atoms: (reference = -2065.832626)

Kinetic:        +16.199260
Potential:      -18.636661
External:        +0.000000
XC:             -12.624858
Entropy (-ST):   +0.000000
Local:           +0.495544
SIC:             +0.000000
--------------------------
Free energy:    -14.566716
Extrapolated:   -14.566716

 Band  Eigenvalues  Occupancy
    0    -25.23282    2.00000
    1    -13.08748    2.00000
    2     -9.33211    2.00000
    3     -7.24204    2.00000
    4     -0.96550    0.00000
    5      0.40139    0.00000

Fermi level: -4.10377

Gap: 6.277 eV
Transition (v -> c):
  (s=0, k=0, n=3, [0.00, 0.00, 0.00]) -> (s=0, k=0, n=4, [0.00, 0.00, 0.00])
No difference between direct/indirect transitions

Forces in eV/Ang:
  0 O    -0.03205   -0.01024    0.00000
  1 H     0.02183    0.01537    0.00000
  2 H     0.00513    0.05136    0.00000

System changes: positions 

Initializing position-dependent things.

Density initialized from wave functions
          .------------------------------------.  
         /|                                    |  
        / |                                    |  
       /  |                                    |  
      /   |                                    |  
     /    |                                    |  
    /     |                                    |  
   /      |                                    |  
  /       |                                    |  
 *        |                                    |  
 |        |                                    |  
 |        |                                    |  
 |        |                                    |  
 |        |            O H                     |  
 |        |                                    |  
 |        |                                    |  
 |        |                                    |  
 |        .------------------------------------.  
 |       /                                    /   
 |      /                                    /    
 |     /                                    /     
 |    /                                    /      
 |   /                                    /       
 |  /                                    /        
 | /                                    /         
 |/                                    /          
 *------------------------------------*           

Atomic positions and initial magnetic moments

Positions:
   0 O      7.235822    7.000664    7.000000    ( 0.0000,  0.0000,  0.0000)
   1 H      8.206379    6.998374    7.000000    ( 0.0000,  0.0000,  0.0000)
   2 H      6.996004    7.940429    7.000000    ( 0.0000,  0.0000,  0.0000)

Unit cell:
           periodic     x           y           z      points  spacing
  1. axis:    no    15.200000    0.000000    0.000000    84     0.1810
  2. axis:    no     0.000000   14.930000    0.000000    84     0.1777
  3. axis:    no     0.000000    0.000000   14.000000    76     0.1842

  Lengths:  15.200000  14.930000  14.000000
  Angles:   90.000000  90.000000  90.000000

Effective grid spacing dv^(1/3) = 0.1809

     iter     time        total  log10-change:
                         energy   eigst   dens
iter:   1 06:40:37   -14.566770   -3.19
iter:   2 06:40:40   -14.566770   -4.04  -3.56
iter:   3 06:40:43   -14.566771c  -4.20  -3.70
iter:   4 06:40:46   -14.566771c  -5.13  -4.04c
iter:   5 06:40:49   -14.566771c  -5.34  -4.31c
iter:   6 06:40:52   -14.566771c  -5.66  -4.56c
iter:   7 06:40:55   -14.566771c  -6.37  -4.59c
iter:   8 06:40:58   -14.566771c  -6.44  -5.01c
iter:   9 06:41:00   -14.566771c  -6.91  -4.98c
iter:  10 06:41:03   -14.566771c  -7.50c -5.14c

Converged after 10 iterations.

Dipole moment: (0.230582, 0.295929, -0.000000) |e|*Ang

Energy contributions relative to reference atoms: (reference = -2065.832626)

Kinetic:        +16.166986
Potential:      -18.611983
External:        +0.000000
XC:             -12.617594
Entropy (-ST):   +0.000000
Local:           +0.495819
SIC:             +0.000000
--------------------------
Free energy:    -14.566771
Extrapolated:   -14.566771

 Band  Eigenvalues  Occupancy
    0    -25.22760    2.00000
    1    -13.09077    2.00000
    2     -9.32561    2.00000
    3     -7.24081    2.00000
    4     -0.96593    0.00000
    5      0.40069    0.00000

Fermi level: -4.10337

Gap: 6.275 eV
Transition (v -> c):
  (s=0, k=0, n=3, [0.00, 0.00, 0.00]) -> (s=0, k=0, n=4, [0.00, 0.00, 0.00])
No difference between direct/indirect transitions

Forces in eV/Ang:
  0 O    -0.02298   -0.01743    0.00000
  1 H     0.00098    0.02544    0.00000
  2 H     0.01833    0.04286    0.00000

System changes: positions 

Initializing position-dependent things.

Density initialized from wave functions
          .------------------------------------.  
         /|                                    |  
        / |                                    |  
       /  |                                    |  
      /   |                                    |  
     /    |                                    |  
    /     |                                    |  
   /      |                                    |  
  /       |                                    |  
 *        |                                    |  
 |        |                                    |  
 |        |                                    |  
 |        |                                    |  
 |        |            O H                     |  
 |        |                                    |  
 |        |                                    |  
 |        |                                    |  
 |        .------------------------------------.  
 |       /                                    /   
 |      /                                    /    
 |     /                                    /     
 |    /                                    /      
 |   /                                    /       
 |  /                                    /        
 | /                                    /         
 |/                                    /          
 *------------------------------------*           

Atomic positions and initial magnetic moments

Positions:
   0 O      7.235362    7.002346    7.000000    ( 0.0000,  0.0000,  0.0000)
   1 H      8.206311    6.998647    7.000000    ( 0.0000,  0.0000,  0.0000)
   2 H      6.995862    7.942901    7.000000    ( 0.0000,  0.0000,  0.0000)

Unit cell:
           periodic     x           y           z      points  spacing
  1. axis:    no    15.200000    0.000000    0.000000    84     0.1810
  2. axis:    no     0.000000   14.930000    0.000000    84     0.1777
  3. axis:    no     0.000000    0.000000   14.000000    76     0.1842

  Lengths:  15.200000  14.930000  14.000000
  Angles:   90.000000  90.000000  90.000000

Effective grid spacing dv^(1/3) = 0.1809

     iter     time        total  log10-change:
                         energy   eigst   dens
iter:   1 06:41:06   -14.566835   -3.08
iter:   2 06:41:09   -14.566837   -3.92  -3.49
iter:   3 06:41:11   -14.566838c  -4.12  -3.63
iter:   4 06:41:14   -14.566838c  -4.89  -4.08c
iter:   5 06:41:17   -14.566838c  -5.40  -4.40c
iter:   6 06:41:20   -14.566838c  -6.16  -4.66c
iter:   7 06:41:23   -14.566838c  -6.28  -4.78c
iter:   8 06:41:25   -14.566838c  -6.40  -4.92c
iter:   9 06:41:28   -14.566838c  -7.15  -4.91c
iter:  10 06:41:31   -14.566838c  -7.28  -5.44c
iter:  11 06:41:33   -14.566838c  -8.48c -5.68c

Converged after 11 iterations.

Dipole moment: (0.230764, 0.295625, -0.000000) |e|*Ang

Energy contributions relative to reference atoms: (reference = -2065.832626)

Kinetic:        +16.111343
Potential:      -18.570498
External:        +0.000000
XC:             -12.603505
Entropy (-ST):   +0.000000
Local:           +0.495823
SIC:             +0.000000
--------------------------
Free energy:    -14.566838
Extrapolated:   -14.566838

 Band  Eigenvalues  Occupancy
    0    -25.22060    2.00000
    1    -13.08833    2.00000
    2     -9.32212    2.00000
    3     -7.23940    2.00000
    4     -0.96739    0.00000
    5      0.39974    0.00000

Fermi level: -4.10340

Gap: 6.272 eV
Transition (v -> c):
  (s=0, k=0, n=3, [0.00, 0.00, 0.00]) -> (s=0, k=0, n=4, [0.00, 0.00, 0.00])
No difference between direct/indirect transitions

Forces in eV/Ang:
  0 O    -0.01505   -0.00033    0.00000
  1 H    -0.01978    0.03100    0.00000
  2 H     0.03330    0.01172    0.00000

System changes: positions 

Initializing position-dependent things.

Density initialized from wave functions
          .------------------------------------.  
         /|                                    |  
        / |                                    |  
       /  |                                    |  
      /   |                                    |  
     /    |                                    |  
    /     |                                    |  
   /      |                                    |  
  /       |                                    |  
 *        |                                    |  
 |        |                                    |  
 |        |                                    |  
 |        |                                    |  
 |        |            O H                     |  
 |        |                                    |  
 |        |                                    |  
 |        |                                    |  
 |        .------------------------------------.  
 |       /                                    /   
 |      /                                    /    
 |     /                                    /     
 |    /                                    /      
 |   /                                    /       
 |  /                                    /        
 | /                                    /         
 |/                                    /          
 *------------------------------------*           

Atomic positions and initial magnetic moments

Positions:
   0 O      7.234472    7.004209    7.000000    ( 0.0000,  0.0000,  0.0000)
   1 H      8.205900    6.999584    7.000000    ( 0.0000,  0.0000,  0.0000)
   2 H      6.996425    7.945708    7.000000    ( 0.0000,  0.0000,  0.0000)

Unit cell:
           periodic     x           y           z      points  spacing
  1. axis:    no    15.200000    0.000000    0.000000    84     0.1810
  2. axis:    no     0.000000   14.930000    0.000000    84     0.1777
  3. axis:    no     0.000000    0.000000   14.000000    76     0.1842

  Lengths:  15.200000  14.930000  14.000000
  Angles:   90.000000  90.000000  90.000000

Effective grid spacing dv^(1/3) = 0.1809

     iter     time        total  log10-change:
                         energy   eigst   dens
iter:   1 06:41:37   -14.566910   -2.90
iter:   2 06:41:39   -14.566913   -3.78  -3.36
iter:   3 06:41:42   -14.566914c  -4.08  -3.48
iter:   4 06:41:45   -14.566914c  -4.77  -4.04c
iter:   5 06:41:48   -14.566914c  -5.27  -4.33c
iter:   6 06:41:51   -14.566914c  -5.99  -4.59c
iter:   7 06:41:54   -14.566914c  -6.07  -4.70c
iter:   8 06:41:57   -14.566914c  -6.48  -4.84c
iter:   9 06:42:00   -14.566914c  -7.01  -5.18c
iter:  10 06:42:02   -14.566914c  -7.90c -5.38c

Converged after 10 iterations.

Dipole moment: (0.231245, 0.295456, 0.000000) |e|*Ang

Energy contributions relative to reference atoms: (reference = -2065.832626)

Kinetic:        +16.062816
Potential:      -18.535239
External:        +0.000000
XC:             -12.590434
Entropy (-ST):   +0.000000
Local:           +0.495943
SIC:             +0.000000
--------------------------
Free energy:    -14.566914
Extrapolated:   -14.566914

 Band  Eigenvalues  Occupancy
    0    -25.21558    2.00000
    1    -13.08149    2.00000
    2     -9.32341    2.00000
    3     -7.23849    2.00000
    4     -0.96907    0.00000
    5      0.39904    0.00000

Fermi level: -4.10378

Gap: 6.269 eV
Transition (v -> c):
  (s=0, k=0, n=3, [0.00, 0.00, 0.00]) -> (s=0, k=0, n=4, [0.00, 0.00, 0.00])
No difference between direct/indirect transitions

Forces in eV/Ang:
  0 O     0.00441    0.01156    0.00000
  1 H    -0.04234    0.02899    0.00000
  2 H     0.03901   -0.01220    0.00000

System changes: positions 

Initializing position-dependent things.

Density initialized from wave functions
          .------------------------------------.  
         /|                                    |  
        / |                                    |  
       /  |                                    |  
      /   |                                    |  
     /    |                                    |  
    /     |                                    |  
   /      |                                    |  
  /       |                                    |  
 *        |                                    |  
 |        |                                    |  
 |        |                                    |  
 |        |                                    |  
 |        |            O H                     |  
 |        |                                    |  
 |        |                                    |  
 |        |                                    |  
 |        .------------------------------------.  
 |       /                                    /   
 |      /                                    /    
 |     /                                    /     
 |    /                                    /      
 |   /                                    /       
 |  /                                    /        
 | /                                    /         
 |/                                    /          
 *------------------------------------*           

Atomic positions and initial magnetic moments

Positions:
   0 O      7.233217    7.006342    7.000000    ( 0.0000,  0.0000,  0.0000)
   1 H      8.204760    7.001454    7.000000    ( 0.0000,  0.0000,  0.0000)
   2 H      6.997994    7.949125    7.000000    ( 0.0000,  0.0000,  0.0000)

Unit cell:
           periodic     x           y           z      points  spacing
  1. axis:    no    15.200000    0.000000    0.000000    84     0.1810
  2. axis:    no     0.000000   14.930000    0.000000    84     0.1777
  3. axis:    no     0.000000    0.000000   14.000000    76     0.1842

  Lengths:  15.200000  14.930000  14.000000
  Angles:   90.000000  90.000000  90.000000

Effective grid spacing dv^(1/3) = 0.1809

     iter     time        total  log10-change:
                         energy   eigst   dens
iter:   1 06:42:05   -14.567015   -2.64
iter:   2 06:42:08   -14.567016   -3.53  -3.13
iter:   3 06:42:10   -14.567014c  -3.72  -3.25
iter:   4 06:42:13   -14.567014c  -4.55  -3.87
iter:   5 06:42:16   -14.567014c  -4.95  -4.08c
iter:   6 06:42:20   -14.567014c  -5.81  -4.35c
iter:   7 06:42:22   -14.567014c  -5.76  -4.45c
iter:   8 06:42:25   -14.567014c  -5.90  -4.57c
iter:   9 06:42:28   -14.567014c  -7.11  -4.83c
iter:  10 06:42:31   -14.567014c  -7.07  -5.20c
iter:  11 06:42:34   -14.567014c  -7.49c -5.30c

Converged after 11 iterations.

Dipole moment: (0.232020, 0.295506, 0.000000) |e|*Ang

Energy contributions relative to reference atoms: (reference = -2065.832626)

Kinetic:        +16.038136
Potential:      -18.518509
External:        +0.000000
XC:             -12.582515
Entropy (-ST):   +0.000000
Local:           +0.495874
SIC:             +0.000000
--------------------------
Free energy:    -14.567014
Extrapolated:   -14.567014

 Band  Eigenvalues  Occupancy
    0    -25.21490    2.00000
    1    -13.07057    2.00000
    2     -9.33114    2.00000
    3     -7.23862    2.00000
    4     -0.97056    0.00000
    5      0.39892    0.00000

Fermi level: -4.10459

Gap: 6.268 eV
Transition (v -> c):
  (s=0, k=0, n=3, [0.00, 0.00, 0.00]) -> (s=0, k=0, n=4, [0.00, 0.00, 0.00])
No difference between direct/indirect transitions

Forces in eV/Ang:
  0 O     0.01101    0.02939    0.00000
  1 H    -0.04303    0.01673    0.00000
  2 H     0.03337   -0.03658    0.00000

System changes: positions 

Initializing position-dependent things.

Density initialized from wave functions
          .------------------------------------.  
         /|                                    |  
        / |                                    |  
       /  |                                    |  
      /   |                                    |  
     /    |                                    |  
    /     |                                    |  
   /      |                                    |  
  /       |                                    |  
 *        |                                    |  
 |        |                                    |  
 |        |                                    |  
 |        |                                    |  
 |        |            O H                     |  
 |        |                                    |  
 |        |                                    |  
 |        |                                    |  
 |        .------------------------------------.  
 |       /                                    /   
 |      /                                    /    
 |     /                                    /     
 |    /                                    /      
 |   /                                    /       
 |  /                                    /        
 | /                                    /         
 |/                                    /          
 *------------------------------------*           

Atomic positions and initial magnetic moments

Positions:
   0 O      7.232198    7.007742    7.000000    ( 0.0000,  0.0000,  0.0000)
   1 H      8.203560    7.003169    7.000000    ( 0.0000,  0.0000,  0.0000)
   2 H      6.999754    7.950958    7.000000    ( 0.0000,  0.0000,  0.0000)

Unit cell:
           periodic     x           y           z      points  spacing
  1. axis:    no    15.200000    0.000000    0.000000    84     0.1810
  2. axis:    no     0.000000   14.930000    0.000000    84     0.1777
  3. axis:    no     0.000000    0.000000   14.000000    76     0.1842

  Lengths:  15.200000  14.930000  14.000000
  Angles:   90.000000  90.000000  90.000000

Effective grid spacing dv^(1/3) = 0.1809

     iter     time        total  log10-change:
                         energy   eigst   dens
iter:   1 06:42:36   -14.567087   -2.87
iter:   2 06:42:39   -14.567084   -3.81  -3.18
iter:   3 06:42:42   -14.567080c  -3.86  -3.31
iter:   4 06:42:45   -14.567080c  -4.90  -3.95
iter:   5 06:42:48   -14.567080c  -4.93  -4.07c
iter:   6 06:42:51   -14.567080c  -5.26  -4.25c
iter:   7 06:42:54   -14.567080c  -5.77  -4.25c
iter:   8 06:42:57   -14.567080c  -5.79  -4.75c
iter:   9 06:42:59   -14.567080c  -6.57  -4.81c
iter:  10 06:43:02   -14.567080c  -7.42c -4.96c

Converged after 10 iterations.

Dipole moment: (0.232741, 0.295637, 0.000000) |e|*Ang

Energy contributions relative to reference atoms: (reference = -2065.832626)

Kinetic:        +16.070034
Potential:      -18.543889
External:        +0.000000
XC:             -12.589036
Entropy (-ST):   +0.000000
Local:           +0.495811
SIC:             +0.000000
--------------------------
Free energy:    -14.567080
Extrapolated:   -14.567080

 Band  Eigenvalues  Occupancy
    0    -25.22056    2.00000
    1    -13.06364    2.00000
    2     -9.34056    2.00000
    3     -7.23987    2.00000
    4     -0.97042    0.00000
    5      0.39974    0.00000

Fermi level: -4.10515

Gap: 6.269 eV
Transition (v -> c):
  (s=0, k=0, n=3, [0.00, 0.00, 0.00]) -> (s=0, k=0, n=4, [0.00, 0.00, 0.00])
No difference between direct/indirect transitions

Forces in eV/Ang:
  0 O     0.01383    0.02006    0.00000
  1 H    -0.02846    0.00112    0.00000
  2 H     0.01318   -0.02414    0.00000

System changes: positions 

Initializing position-dependent things.

Density initialized from wave functions
          .------------------------------------.  
         /|                                    |  
        / |                                    |  
       /  |                                    |  
      /   |                                    |  
     /    |                                    |  
    /     |                                    |  
   /      |                                    |  
  /       |                                    |  
 *        |                                    |  
 |        |                                    |  
 |        |                                    |  
 |        |                                    |  
 |        |            O H                     |  
 |        |                                    |  
 |        |                                    |  
 |        |                                    |  
 |        .------------------------------------.  
 |       /                                    /   
 |      /                                    /    
 |     /                                    /     
 |    /                                    /      
 |   /                                    /       
 |  /                                    /        
 | /                                    /         
 |/                                    /          
 *------------------------------------*           

Atomic positions and initial magnetic moments

Positions:
   0 O      7.232073    7.008018    7.000000    ( 0.0000,  0.0000,  0.0000)
   1 H      8.203003    7.003591    7.000000    ( 0.0000,  0.0000,  0.0000)
   2 H      7.000359    7.951025    7.000000    ( 0.0000,  0.0000,  0.0000)

Unit cell:
           periodic     x           y           z      points  spacing
  1. axis:    no    15.200000    0.000000    0.000000    84     0.1810
  2. axis:    no     0.000000   14.930000    0.000000    84     0.1777
  3. axis:    no     0.000000    0.000000   14.000000    76     0.1842

  Lengths:  15.200000  14.930000  14.000000
  Angles:   90.000000  90.000000  90.000000

Effective grid spacing dv^(1/3) = 0.1809

     iter     time        total  log10-change:
                         energy   eigst   dens
iter:   1 06:43:05   -14.567098   -4.03
iter:   2 06:43:08   -14.567096   -5.09  -3.63
iter:   3 06:43:11   -14.567096c  -4.66  -3.77
iter:   4 06:43:14   -14.567096c  -5.53  -4.14c
iter:   5 06:43:17   -14.567095c  -6.39  -4.10c
iter:   6 06:43:19   -14.567095c  -6.03  -4.20c
iter:   7 06:43:22   -14.567095c  -6.61  -4.38c
iter:   8 06:43:25   -14.567095c  -6.41  -4.46c
iter:   9 06:43:28   -14.567095c  -7.01  -4.68c
iter:  10 06:43:31   -14.567095c  -7.03  -4.82c
iter:  11 06:43:35   -14.567095c  -8.00c -5.13c

Converged after 11 iterations.

Dipole moment: (0.232882, 0.295655, -0.000000) |e|*Ang

Energy contributions relative to reference atoms: (reference = -2065.832626)

Kinetic:        +16.110752
Potential:      -18.574345
External:        +0.000000
XC:             -12.599466
Entropy (-ST):   +0.000000
Local:           +0.495965
SIC:             +0.000000
--------------------------
Free energy:    -14.567095
Extrapolated:   -14.567095

 Band  Eigenvalues  Occupancy
    0    -25.22597    2.00000
    1    -13.06514    2.00000
    2     -9.34359    2.00000
    3     -7.24100    2.00000
    4     -0.96934    0.00000
    5      0.40046    0.00000

Fermi level: -4.10517

Gap: 6.272 eV
Transition (v -> c):
  (s=0, k=0, n=3, [0.00, 0.00, 0.00]) -> (s=0, k=0, n=4, [0.00, 0.00, 0.00])
No difference between direct/indirect transitions

Forces in eV/Ang:
  0 O     0.00084    0.00561    0.00000
  1 H    -0.00566   -0.00361    0.00000
  2 H     0.00350   -0.00600    0.00000

Timing:                                      incl.     excl.
-------------------------------------------------------------------
Density initialized from wave functions:     0.787     0.661   0.2% |
 Symmetrize density:                         0.126     0.126   0.0% |
Forces:                                      0.586     0.586   0.2% |
Hamiltonian:                                18.368     0.001   0.0% |
 Atomic:                                     0.642     0.065   0.0% |
  XC Correction:                             0.578     0.578   0.1% |
 Calculate atomic Hamiltonians:              0.009     0.009   0.0% |
 Communicate:                                0.000     0.000   0.0% |
 Hartree integrate/restrict:                 0.895     0.895   0.2% |
 Initialize Hamiltonian:                     0.000     0.000   0.0% |
 Poisson:                                    6.355     0.407   0.1% |
  Communicate from 1D:                       0.821     0.821   0.2% |
  Communicate from 2D:                       0.854     0.854   0.2% |
  Communicate to 1D:                         0.838     0.838   0.2% |
  Communicate to 2D:                         0.828     0.828   0.2% |
  FFT 1D:                                    0.851     0.851   0.2% |
  FFT 2D:                                    1.756     1.756   0.5% |
 XC 3D grid:                                10.343    10.343   2.7% ||
 vbar:                                       0.122     0.122   0.0% |
LCAO initialization:                         0.061     0.050   0.0% |
 LCAO eigensolver:                           0.003     0.000   0.0% |
  Calculate projections:                     0.000     0.000   0.0% |
  DenseAtomicCorrection:                     0.000     0.000   0.0% |
  Distribute overlap matrix:                 0.000     0.000   0.0% |
  Orbital Layouts:                           0.000     0.000   0.0% |
  Potential matrix:                          0.002     0.002   0.0% |
 LCAO to grid:                               0.005     0.005   0.0% |
 Set positions (LCAO WFS):                   0.003     0.000   0.0% |
  Basic WFS set positions:                   0.000     0.000   0.0% |
  Basis functions set positions:             0.000     0.000   0.0% |
  P tci:                                     0.001     0.001   0.0% |
  ST tci:                                    0.000     0.000   0.0% |
  mktci:                                     0.001     0.001   0.0% |
Redistribute:                                0.003     0.003   0.0% |
SCF-cycle:                                 359.459     0.302   0.1% |
 Davidson:                                 121.625    71.057  18.4% |------|
  Apply hamiltonian:                        11.994    11.994   3.1% ||
  Subspace diag:                            14.382     0.011   0.0% |
   calc_h_matrix:                            9.783     1.292   0.3% |
    Apply hamiltonian:                       8.491     8.491   2.2% ||
   diagonalize:                              0.023     0.023   0.0% |
   rotate_psi:                               4.564     4.564   1.2% |
  calc. matrices:                           15.655     6.140   1.6% ||
   Apply hamiltonian:                        9.515     9.515   2.5% ||
  diagonalize:                               0.040     0.040   0.0% |
  rotate_psi:                                8.498     8.498   2.2% ||
 Density:                                   33.531     0.002   0.0% |
  Atomic density matrices:                   0.051     0.051   0.0% |
  Mix:                                      29.822    29.822   7.7% |--|
  Multipole moments:                         0.010     0.010   0.0% |
  Pseudo density:                            3.645     0.740   0.2% |
   Symmetrize density:                       2.906     2.906   0.8% |
 Hamiltonian:                              203.549     0.007   0.0% |
  Atomic:                                    7.443     0.067   0.0% |
   XC Correction:                            7.376     7.376   1.9% ||
  Calculate atomic Hamiltonians:             0.167     0.167   0.0% |
  Communicate:                               0.001     0.001   0.0% |
  Hartree integrate/restrict:                7.754     7.754   2.0% ||
  Poisson:                                  69.499     2.700   0.7% |
   Communicate from 1D:                      9.183     9.183   2.4% ||
   Communicate from 2D:                      9.575     9.575   2.5% ||
   Communicate to 1D:                        9.388     9.388   2.4% ||
   Communicate to 2D:                        9.270     9.270   2.4% ||
   FFT 1D:                                   9.621     9.621   2.5% ||
   FFT 2D:                                  19.763    19.763   5.1% |-|
  XC 3D grid:                              115.584   115.584  30.0% |-----------|
  vbar:                                      3.093     3.093   0.8% |
 Orthonormalize:                             0.453     0.049   0.0% |
  calc_s_matrix:                             0.101     0.101   0.0% |
  inverse-cholesky:                          0.002     0.002   0.0% |
  projections:                               0.004     0.004   0.0% |
  rotate_psi_s:                              0.297     0.297   0.1% |
Set symmetry:                                0.001     0.001   0.0% |
Other:                                       5.970     5.970   1.5% ||
-------------------------------------------------------------------
Total:                                               385.235 100.0%

Date: Mon Mar  2 06:43:35 2026
