
  ___ ___ ___ _ _ _  
 |   |   |_  | | | | 
 | | | | | . | | | | 
 |__ |  _|___|_____|  25.7.0
 |___|_|             

User:   coder@vm-rockland-6674d4f778-lf4ct
Date:   Mon Mar  2 07:07:38 2026
Arch:   x86_64
Pid:    729663
CWD:    /home/coder/project_dft_tests
Python: 3.12.3
gpaw:   /home/coder/dft_env/lib/python3.12/site-packages/gpaw
_gpaw:  /home/coder/dft_env/lib/python3.12/site-packages/
        _gpaw.cpython-312-x86_64-linux-gnu.so
ase:    /home/coder/dft_env/lib/python3.12/site-packages/ase (version 3.27.0)
numpy:  /home/coder/dft_env/lib/python3.12/site-packages/numpy (version 2.4.2)
scipy:  /home/coder/dft_env/lib/python3.12/site-packages/scipy (version 1.17.1)
libxc:  2.x.y
units:  Angstrom and eV
cores: 1
OpenMP: False
OMP_NUM_THREADS: 1

Input parameters:
  convergence: {energy: 1e-05}
  h: 0.18
  mode: fd
  xc: PBE

System changes: positions, numbers, cell, pbc, initial_charges, initial_magmoms 

Initialize ...

species:
  O:
    name: Oxygen
    id: 32ecd46bf208036f09c70b0ec9a88b78
    Z: 8.0
    valence: 6
    core: 2
    charge: 0.0
    file: /home/coder/dft_env/lib/python3.12/site-packages/gpaw_data/setups/O.PBE.gz
    compensation charges: {type: gauss,
                           rc: 0.21,
                           lmax: 2}
    cutoffs: {filter: 1.17,
              core: 0.83}
    projectors:
      #              energy  rcut
      - 2s(2.00)   -23.961   0.688
      - 2p(4.00)    -9.029   0.598
      -  s           3.251   0.688
      -  p          18.182   0.598
      -  d           0.000   0.619
  
    # Using partial waves for O as LCAO basis

  H:
    name: Hydrogen
    id: d65de229564ff8ea4db303e23b6d1ecf
    Z: 1.0
    valence: 1
    core: 0
    charge: 0.0
    file: /home/coder/dft_env/lib/python3.12/site-packages/gpaw_data/setups/H.PBE.gz
    compensation charges: {type: gauss,
                           rc: 0.15,
                           lmax: 2}
    cutoffs: {filter: 0.85,
              core: 0.53}
    projectors:
      #              energy  rcut
      - 1s(1.00)    -6.494   0.476
      -  s          20.717   0.476
      -  p           0.000   0.476
  
    # Using partial waves for H as LCAO basis

Reference energy: -2065.832626  # eV

Spin-paired calculation

Convergence criteria:
 Maximum [total energy] change in last 3 cyles: 1e-05 eV / valence electron
 Maximum integral of absolute [dens]ity change: 0.0001 electrons / valence electron
 Maximum integral of absolute [eigenst]ate change: 4e-08 eV^2 / valence electron
 Maximum number of scf [iter]ations: 333
 (Square brackets indicate name in SCF output, whereas a 'c' in
 the SCF output indicates the quantity has converged.)

Symmetries present (total): 2

  ( 1  0  0)  ( 1  0  0)
  ( 0  1  0)  ( 0  1  0)
  ( 0  0  1)  ( 0  0 -1)

1 k-point (Gamma)
1 k-point in the irreducible part of the Brillouin zone
       k-points in crystal coordinates                weights
   0:     0.00000000    0.00000000    0.00000000          1/1

Wave functions: Uniform real-space grid
  Kinetic energy operator: 6*3+1=19 point O(h^6) finite-difference Laplacian
  ScaLapack parameters: grid=1x1, blocksize=None
  Wavefunction extrapolation:
    Improved wavefunction reuse through dual PAW basis 

Occupation numbers: # Zero width 

Eigensolver
   Davidson(niter=2) 

Densities:
  Coarse grid: 84*84*76 grid
  Fine grid: 168*168*152 grid
  Total Charge: 0.000000 

Density mixing:
  Method: separate
  Backend: pulay
  Linear mixing parameter: 0.25
  old densities: 3
  Damping of long wavelength oscillations: 1  # (no daming) 

Hamiltonian:
  XC and Coulomb potentials evaluated on a 168*168*152 grid
  Using the PBE Exchange-Correlation functional
  Interpolation: tri-quintic (5. degree polynomial)
  Poisson solver: FastPoissonSolver using
    Stencil: 6*3+1=19 point O(h^6) finite-difference Laplacian
    FFT axes: []
    FST axes: [np.int64(2), np.int64(0), np.int64(1)]
 

XC parameters: PBE with 2 nearest neighbor stencil

Memory estimate:
  Process memory now: 692.50 MiB
  Calculator: 265.09 MiB
    Density: 129.61 MiB
      Arrays: 104.27 MiB
      Localized functions: 1.69 MiB
      Mixer: 23.65 MiB
    Hamiltonian: 68.32 MiB
      Arrays: 68.20 MiB
      XC: 0.00 MiB
      Poisson: 0.00 MiB
      vbar: 0.12 MiB
    Wavefunctions: 67.16 MiB
      Arrays psit_nG: 23.65 MiB
      Eigensolver: 43.36 MiB
      Projections: 0.00 MiB
      Projectors: 0.14 MiB

Total number of cores used: 1

Number of atoms: 3
Number of atomic orbitals: 6
Number of bands in calculation: 6
Number of valence electrons: 8
Bands to converge: occupied

... initialized

Initializing position-dependent things.

Density initialized from atomic densities
Creating initial wave functions:
  6 bands from LCAO basis set

          .------------------------------------.  
         /|                                    |  
        / |                                    |  
       /  |                                    |  
      /   |                                    |  
     /    |                                    |  
    /     |                                    |  
   /      |                                    |  
  /       |                                    |  
 *        |                                    |  
 |        |                                    |  
 |        |                                    |  
 |        |                                    |  
 |        |            O H                     |  
 |        |                                    |  
 |        |                                    |  
 |        |                                    |  
 |        .------------------------------------.  
 |       /                                    /   
 |      /                                    /    
 |     /                                    /     
 |    /                                    /      
 |   /                                    /       
 |  /                                    /        
 | /                                    /         
 |/                                    /          
 *------------------------------------*           

Atomic positions and initial magnetic moments

Positions:
   0 O      7.231714    7.004428    7.000000    ( 0.0000,  0.0000,  0.0000)
   1 H      8.202644    7.000000    7.000000    ( 0.0000,  0.0000,  0.0000)
   2 H      7.000000    7.947434    7.000000    ( 0.0000,  0.0000,  0.0000)

Unit cell:
           periodic     x           y           z      points  spacing
  1. axis:    no    15.202644    0.000000    0.000000    84     0.1810
  2. axis:    no     0.000000   14.947434    0.000000    84     0.1779
  3. axis:    no     0.000000    0.000000   14.000000    76     0.1842

  Lengths:  15.202644  14.947434  14.000000
  Angles:   90.000000  90.000000  90.000000

Effective grid spacing dv^(1/3) = 0.1810

     iter     time        total  log10-change:
                         energy   eigst   dens
iter:   1 07:07:46   -16.433951
iter:   2 07:07:49   -14.803476   +0.66  -0.71
iter:   3 07:07:52   -14.611153   +0.55  -0.97
iter:   4 07:07:54   -14.575718   -0.67  -1.16
iter:   5 07:07:57   -14.566778   -0.94  -1.76
iter:   6 07:08:00   -14.566811   -1.64  -2.38
iter:   7 07:08:04   -14.566829c  -2.77  -2.50
iter:   8 07:08:07   -14.567086   -2.59  -2.57
iter:   9 07:08:09   -14.566942   -3.63  -2.70
iter:  10 07:08:12   -14.566968   -2.95  -2.86
iter:  11 07:08:15   -14.566841   -2.66  -2.81
iter:  12 07:08:18   -14.566848   -3.44  -4.00
iter:  13 07:08:21   -14.566847c  -4.94  -3.82
iter:  14 07:08:24   -14.566846c  -5.61  -3.98
iter:  15 07:08:27   -14.566846c  -6.03  -4.21c
iter:  16 07:08:30   -14.566846c  -5.84  -4.44c
iter:  17 07:08:33   -14.566846c  -6.77  -4.76c
iter:  18 07:08:36   -14.566846c  -6.74  -5.03c
iter:  19 07:08:38   -14.566846c  -6.82  -4.97c
iter:  20 07:08:41   -14.566846c  -7.46c -5.12c

Converged after 20 iterations.

Dipole moment: (0.232888, 0.295670, -0.000000) |e|*Ang

Energy contributions relative to reference atoms: (reference = -2065.832626)

Kinetic:        +16.115703
Potential:      -18.578012
External:        +0.000000
XC:             -12.599806
Entropy (-ST):   +0.000000
Local:           +0.495268
SIC:             +0.000000
--------------------------
Free energy:    -14.566846
Extrapolated:   -14.566846

 Band  Eigenvalues  Occupancy
    0    -25.22589    2.00000
    1    -13.06524    2.00000
    2     -9.34366    2.00000
    3     -7.24106    2.00000
    4     -0.96901    0.00000
    5      0.41728    0.00000

Fermi level: -4.10504

Gap: 6.272 eV
Transition (v -> c):
  (s=0, k=0, n=3, [0.00, 0.00, 0.00]) -> (s=0, k=0, n=4, [0.00, 0.00, 0.00])
No difference between direct/indirect transitions
Writing to runs/H2O/final.gpw (mode='')

Timing:                              incl.     excl.
-----------------------------------------------------------
Hamiltonian:                         1.645     0.000   0.0% |
 Atomic:                             0.033     0.000   0.0% |
  XC Correction:                     0.033     0.033   0.1% |
 Calculate atomic Hamiltonians:      0.001     0.001   0.0% |
 Communicate:                        0.000     0.000   0.0% |
 Hartree integrate/restrict:         0.100     0.100   0.2% |
 Initialize Hamiltonian:             0.000     0.000   0.0% |
 Poisson:                            0.597     0.041   0.1% |
  Communicate from 1D:               0.084     0.084   0.1% |
  Communicate from 2D:               0.078     0.078   0.1% |
  Communicate to 1D:                 0.075     0.075   0.1% |
  Communicate to 2D:                 0.075     0.075   0.1% |
  FFT 1D:                            0.078     0.078   0.1% |
  FFT 2D:                            0.165     0.165   0.3% |
 XC 3D grid:                         0.894     0.894   1.4% ||
 vbar:                               0.019     0.019   0.0% |
LCAO initialization:                 0.068     0.059   0.1% |
 LCAO eigensolver:                   0.003     0.000   0.0% |
  Calculate projections:             0.000     0.000   0.0% |
  DenseAtomicCorrection:             0.000     0.000   0.0% |
  Distribute overlap matrix:         0.000     0.000   0.0% |
  Orbital Layouts:                   0.000     0.000   0.0% |
  Potential matrix:                  0.002     0.002   0.0% |
 LCAO to grid:                       0.004     0.004   0.0% |
 Set positions (LCAO WFS):           0.003     0.000   0.0% |
  Basic WFS set positions:           0.000     0.000   0.0% |
  Basis functions set positions:     0.000     0.000   0.0% |
  P tci:                             0.001     0.001   0.0% |
  ST tci:                            0.000     0.000   0.0% |
  mktci:                             0.001     0.001   0.0% |
SCF-cycle:                          56.839     0.012   0.0% |
 Davidson:                          18.678    11.111  17.5% |------|
  Apply hamiltonian:                 1.911     1.911   3.0% ||
  Subspace diag:                     2.056     0.002   0.0% |
   calc_h_matrix:                    1.390     0.196   0.3% |
    Apply hamiltonian:               1.194     1.194   1.9% ||
   diagonalize:                      0.004     0.004   0.0% |
   rotate_psi:                       0.660     0.660   1.0% |
  calc. matrices:                    2.399     0.955   1.5% ||
   Apply hamiltonian:                1.444     1.444   2.3% ||
  diagonalize:                       0.006     0.006   0.0% |
  rotate_psi:                        1.195     1.195   1.9% ||
 Density:                            5.745     0.000   0.0% |
  Atomic density matrices:           0.008     0.008   0.0% |
  Mix:                               5.180     5.180   8.1% |--|
  Multipole moments:                 0.002     0.002   0.0% |
  Pseudo density:                    0.556     0.125   0.2% |
   Symmetrize density:               0.431     0.431   0.7% |
 Hamiltonian:                       32.358     0.001   0.0% |
  Atomic:                            1.158     0.008   0.0% |
   XC Correction:                    1.150     1.150   1.8% ||
  Calculate atomic Hamiltonians:     0.016     0.016   0.0% |
  Communicate:                       0.000     0.000   0.0% |
  Hartree integrate/restrict:        1.495     1.495   2.3% ||
  Poisson:                          11.070     0.440   0.7% |
   Communicate from 1D:              1.445     1.445   2.3% ||
   Communicate from 2D:              1.521     1.521   2.4% ||
   Communicate to 1D:                1.489     1.489   2.3% ||
   Communicate to 2D:                1.466     1.466   2.3% ||
   FFT 1D:                           1.538     1.538   2.4% ||
   FFT 2D:                           3.171     3.171   5.0% |-|
  XC 3D grid:                       18.259    18.259  28.7% |----------|
  vbar:                              0.359     0.359   0.6% |
 Orthonormalize:                     0.045     0.000   0.0% |
  calc_s_matrix:                     0.004     0.004   0.0% |
  inverse-cholesky:                  0.000     0.000   0.0% |
  projections:                       0.000     0.000   0.0% |
  rotate_psi_s:                      0.041     0.041   0.1% |
Set symmetry:                        0.001     0.001   0.0% |
Other:                               5.092     5.092   8.0% |--|
-----------------------------------------------------------
Total:                                        63.644 100.0%

Memory usage: 736.82 MiB
Date: Mon Mar  2 07:08:42 2026
