5
Lattice="15.26 0.0 0.0 0.0 15.26 0.0 0.0 0.0 15.26" Properties=species:S:1:pos:R:3:magmoms:R:1:forces:R:3 energy=-24.008652197021988 free_energy=-24.008652197021988 dipole="-1.5454864218887486e-15 -1.7543909172418061e-15 -6.141385337810659e-15" magmom=0.0 pbc="F F F"
C        7.63000000       7.63000000       7.63000000       0.00000000      -0.00000000       0.00000000       0.00000000
H        8.26277101       8.26277101       8.26277101       0.00000000      -0.00054885      -0.00054885      -0.00054885
H        6.99722899       6.99722899       8.26277101       0.00000000       0.00054885       0.00054885      -0.00054885
H        6.99722899       8.26277101       6.99722899       0.00000000       0.00054885      -0.00054885       0.00054885
H        8.26277101       6.99722899       6.99722899       0.00000000      -0.00054885       0.00054885       0.00054885
